       N       E                     dE             d eps       ncg     rms          rms(c)
SOL:   1  -0.51709E-02    0.00000E+00   -0.51709E-02   161
  FERMI_SHIFT =     1.850701768352429     
DAV:   1     0.253363078207E+04    0.25336E+04   -0.18143E+05  6760   0.149E+03
DAV:   2    -0.111241001728E+02   -0.25448E+04   -0.24269E+04  7128   0.345E+02
DAV:   3    -0.100467976898E+03   -0.89344E+02   -0.87052E+02  7280   0.640E+01
DAV:   4    -0.101914056276E+03   -0.14461E+01   -0.14392E+01  7544   0.765E+00
DAV:   5    -0.101946340828E+03   -0.32285E-01   -0.32267E-01  7704   0.113E+00    0.298E+01
SOL:   2  -0.31004E+01    0.00000E+00   -0.31004E+01   144
  FERMI_SHIFT =     1.850729922083524     
RMM:   6    -0.239492538663E+03   -0.13755E+03   -0.98551E+01  8493   0.163E+01    0.564E+01
SOL:   3  -0.31358E+01    0.00000E+00   -0.31358E+01   137
  FERMI_SHIFT =     1.850730730011547     
RMM:   7    -0.235364105604E+03    0.41284E+01   -0.34942E+01  9573   0.496E+00    0.539E+01
SOL:   4  -0.36445E+01    0.00000E+00   -0.36445E+01   151
  FERMI_SHIFT =     1.850714582794661     
RMM:   8    -0.224189392317E+03    0.11175E+02   -0.23150E+01  8365   0.479E+00    0.739E+01
SOL:   5  -0.37361E+01    0.00000E+00   -0.37361E+01   147
  FERMI_SHIFT =     1.850740792988823     
RMM:   9    -0.213882380016E+03    0.10307E+02   -0.12195E+01  8767   0.206E+00    0.683E+01
SOL:   6  -0.36831E+01    0.00000E+00   -0.36831E+01   144
  FERMI_SHIFT =     1.850701510892538     
RMM:  10    -0.218652987368E+03   -0.47706E+01   -0.61092E+00  8918   0.108E+00    0.695E+01
SOL:   7  -0.53927E+01    0.00000E+00   -0.53927E+01   156
  FERMI_SHIFT =     1.850730405395861     
RMM:  11    -0.152034198654E+03    0.66619E+02   -0.48403E+01 10932   0.616E+00    0.623E+01
SOL:   8  -0.89096E+01    0.00000E+00   -0.89096E+01   159
  FERMI_SHIFT =     1.850730954955258     
RMM:  12    -0.160250372370E+03   -0.82162E+01   -0.44945E+01 10841   0.777E+00    0.635E+01
SOL:   9  -0.88900E+01    0.00000E+00   -0.88900E+01   150
  FERMI_SHIFT =     1.850730955048228     
RMM:  13    -0.161521643179E+03   -0.12713E+01   -0.14867E+00  8273   0.114E+00    0.665E+01
SOL:  10  -0.92482E+01    0.00000E+00   -0.92482E+01   157
  FERMI_SHIFT =     1.850702153321956     
RMM:  14    -0.164761214461E+03   -0.32396E+01   -0.26017E+00  9178   0.214E+00    0.644E+01
SOL:  11  -0.11190E+02    0.00000E+00   -0.11190E+02   157
  FERMI_SHIFT =     1.850702319920096     
RMM:  15    -0.164282489585E+03    0.47872E+00   -0.67429E+00 10302   0.479E+00    0.497E+01
SOL:  12  -0.10832E+02    0.00000E+00   -0.10832E+02   152
  FERMI_SHIFT =     1.850731568284615     
RMM:  16    -0.142520291612E+03    0.21762E+02   -0.85021E+00  9642   0.407E+00    0.349E+01
SOL:  13  -0.11224E+02    0.00000E+00   -0.11224E+02   153
  FERMI_SHIFT =     1.850731570213565     
RMM:  17    -0.139954908039E+03    0.25654E+01   -0.56541E-01  7912   0.158E+00    0.312E+01
SOL:  14  -0.11617E+02    0.00000E+00   -0.11617E+02   156
  FERMI_SHIFT =     1.850701715638998     
RMM:  18    -0.135341608583E+03    0.46133E+01   -0.87951E-01  8437   0.175E+00    0.259E+01
SOL:  15  -0.11373E+02    0.00000E+00   -0.11373E+02   161
  FERMI_SHIFT =     1.850703050531941     
RMM:  19    -0.123505415429E+03    0.11836E+02   -0.35428E+00  9854   0.279E+00    0.163E+01
SOL:  16  -0.11141E+02    0.00000E+00   -0.11141E+02   156
  FERMI_SHIFT =     1.850702740211723     
RMM:  20    -0.118764990547E+03    0.47404E+01   -0.73884E-01  8271   0.134E+00    0.128E+01
SOL:  17  -0.10712E+02    0.00000E+00   -0.10712E+02   151
  FERMI_SHIFT =     1.850702682991521     
RMM:  21    -0.113353306824E+03    0.54117E+01   -0.84510E-01  8531   0.141E+00    0.100E+01
SOL:  18  -0.10343E+02    0.00000E+00   -0.10343E+02   152
  FERMI_SHIFT =     1.850702524424108     
RMM:  22    -0.110159345872E+03    0.31940E+01   -0.43423E-01  8150   0.990E-01    0.861E+00
SOL:  19  -0.95664E+01    0.00000E+00   -0.95664E+01   156
  FERMI_SHIFT =     1.850731911364679     
RMM:  23    -0.104853559787E+03    0.53058E+01   -0.11694E+00  9013   0.168E+00    0.664E+00
SOL:  20  -0.83659E+01    0.00000E+00   -0.83659E+01   158
  FERMI_SHIFT =     1.850729970222595     
RMM:  24    -0.984738300910E+02    0.63797E+01   -0.27183E+00  9906   0.260E+00    0.475E+00
SOL:  21  -0.82902E+01    0.00000E+00   -0.82902E+01   147
  FERMI_SHIFT =     1.850701759792553     
RMM:  25    -0.981319858470E+02    0.34184E+00   -0.31160E-02  7682   0.331E-01    0.460E+00
SOL:  22  -0.75599E+01    0.00000E+00   -0.75599E+01   154
  FERMI_SHIFT =     1.850701886141259     
RMM:  26    -0.951953637046E+02    0.29366E+01   -0.95680E-01 10134   0.160E+00    0.343E+00
SOL:  23  -0.74127E+01    0.00000E+00   -0.74127E+01   143
  FERMI_SHIFT =     1.850701886129844     
RMM:  27    -0.947736166202E+02    0.42175E+00   -0.23357E-02  7744   0.271E-01    0.312E+00
SOL:  24  -0.72818E+01    0.00000E+00   -0.72818E+01   144
  FERMI_SHIFT =     1.850730139907483     
RMM:  28    -0.942775007888E+02    0.49612E+00   -0.75974E-02  8298   0.463E-01    0.241E+00
SOL:  25  -0.72239E+01    0.00000E+00   -0.72239E+01   141
  FERMI_SHIFT =     1.850730064099061     
RMM:  29    -0.942871796404E+02   -0.96789E-02   -0.57671E-02  8006   0.451E-01    0.216E+00
SOL:  26  -0.70953E+01    0.00000E+00   -0.70953E+01   144
  FERMI_SHIFT =     1.850729970149402     
RMM:  30    -0.944699320858E+02   -0.18275E+00   -0.28916E-01  9748   0.105E+00    0.222E+00
SOL:  27  -0.67768E+01    0.00000E+00   -0.67768E+01   148
  FERMI_SHIFT =     1.850729923950134     
RMM:  31    -0.939650049349E+02    0.50493E+00   -0.57348E-02  8212   0.318E-01    0.186E+00
SOL:  28  -0.64778E+01    0.00000E+00   -0.64778E+01   147
  FERMI_SHIFT =     1.850701716357634     
RMM:  32    -0.934637352310E+02    0.50127E+00   -0.76076E-02  8521   0.394E-01    0.132E+00
SOL:  29  -0.64691E+01    0.00000E+00   -0.64691E+01   132
  FERMI_SHIFT =     1.850701716340680     
RMM:  33    -0.934647841256E+02   -0.10489E-02   -0.26112E-03  7564   0.872E-02    0.131E+00
SOL:  30  -0.62215E+01    0.00000E+00   -0.62215E+01   145
  FERMI_SHIFT =     1.850701768996824     
RMM:  34    -0.932612155486E+02    0.20357E+00   -0.10511E-01 10268   0.557E-01    0.119E+00
SOL:  31  -0.62179E+01    0.00000E+00   -0.62179E+01   143
  FERMI_SHIFT =     1.850701769047724     
RMM:  35    -0.933230576263E+02   -0.61842E-01   -0.11493E-02  7932   0.188E-01    0.115E+00
SOL:  32  -0.59542E+01    0.00000E+00   -0.59542E+01   144
  FERMI_SHIFT =     1.850649359896543     
RMM:  36    -0.931766486343E+02    0.14641E+00   -0.95921E-02 10266   0.530E-01    0.137E+00
SOL:  33  -0.58921E+01    0.00000E+00   -0.58921E+01   141
  FERMI_SHIFT =     1.850714582687301     
RMM:  37    -0.931340970910E+02    0.42552E-01   -0.25543E-03  7726   0.913E-02    0.126E+00
SOL:  34  -0.59335E+01    0.00000E+00   -0.59335E+01   147
  FERMI_SHIFT =     1.850732919970078     
RMM:  38    -0.932301093284E+02   -0.96012E-01   -0.23245E-02  9336   0.255E-01    0.117E+00
SOL:  35  -0.58958E+01    0.00000E+00   -0.58958E+01   134
  FERMI_SHIFT =     1.850734757793303     
RMM:  39    -0.931995132176E+02    0.30596E-01   -0.12134E-03  7624   0.609E-02    0.112E+00
SOL:  36  -0.57873E+01    0.00000E+00   -0.57873E+01   142
  FERMI_SHIFT =     1.850734757800035     
RMM:  40    -0.931447427773E+02    0.54770E-01   -0.13525E-02  9239   0.193E-01    0.123E+00
SOL:  37  -0.57525E+01    0.00000E+00   -0.57525E+01   139
  FERMI_SHIFT =     1.850738530839770     
RMM:  41    -0.931193836697E+02    0.25359E-01   -0.18609E-03  7698   0.891E-02    0.111E+00
SOL:  38  -0.57490E+01    0.00000E+00   -0.57490E+01   133
  FERMI_SHIFT =     1.850738530846732     
RMM:  42    -0.931139496908E+02    0.54340E-02   -0.99961E-04  7587   0.590E-02    0.105E+00
SOL:  39  -0.57543E+01    0.00000E+00   -0.57543E+01   127
  FERMI_SHIFT =     1.850738530854148     
RMM:  43    -0.931179762833E+02   -0.40266E-02   -0.82463E-05  7327   0.154E-02    0.105E+00
SOL:  40  -0.57271E+01    0.00000E+00   -0.57271E+01   134
  FERMI_SHIFT =     1.850703821239403     
RMM:  44    -0.930992108996E+02    0.18765E-01   -0.30902E-04  7988   0.266E-02    0.103E+00
SOL:  41  -0.56011E+01    0.00000E+00   -0.56011E+01   142
  FERMI_SHIFT =     1.850703737651997     
RMM:  45    -0.930060680446E+02    0.93143E-01   -0.10371E-02 11488   0.168E-01    0.804E-01
SOL:  42  -0.55990E+01    0.00000E+00   -0.55990E+01   128
  FERMI_SHIFT =     1.850703737633047     
RMM:  46    -0.930049638283E+02    0.11042E-02   -0.24701E-05  7755   0.861E-03    0.801E-01
SOL:  43  -0.56020E+01    0.00000E+00   -0.56020E+01   134
  FERMI_SHIFT =     1.850703737628773     
RMM:  47    -0.930063456371E+02   -0.13818E-02   -0.33741E-05  7637   0.107E-02    0.796E-01
SOL:  44  -0.55091E+01    0.00000E+00   -0.55091E+01   147
  FERMI_SHIFT =     1.850736424323724     
RMM:  48    -0.929276130532E+02    0.78733E-01   -0.30077E-02 13314   0.304E-01    0.424E-01
SOL:  45  -0.55494E+01    0.00000E+00   -0.55494E+01   146
  FERMI_SHIFT =     1.850702870594343     
RMM:  49    -0.929141121585E+02    0.13501E-01   -0.66147E-03 12446   0.140E-01    0.284E-01
SOL:  46  -0.55597E+01    0.00000E+00   -0.55597E+01   134
  FERMI_SHIFT =     1.850733038341724     
RMM:  50    -0.929125861998E+02    0.15260E-02   -0.23358E-04  9423   0.292E-02    0.247E-01
SOL:  47  -0.56534E+01    0.00000E+00   -0.56534E+01   145
  FERMI_SHIFT =     1.850730730432961     
RMM:  51    -0.929095862870E+02    0.29999E-02   -0.91357E-03 12872   0.135E-01    0.501E-02
SOL:  48  -0.56639E+01    0.00000E+00   -0.56639E+01   135
  FERMI_SHIFT =     1.850730584829794     
RMM:  52    -0.929104967118E+02   -0.91042E-03   -0.12028E-04  8252   0.164E-02    0.295E-02
SOL:  49  -0.56489E+01    0.00000E+00   -0.56489E+01   137
  FERMI_SHIFT =     1.850702105406732     
RMM:  53    -0.929109795911E+02   -0.48288E-03   -0.18078E-04  8563   0.285E-02    0.521E-02
SOL:  50  -0.56615E+01    0.00000E+00   -0.56615E+01   136
  FERMI_SHIFT =     1.850730584831444     
RMM:  54    -0.929114801342E+02   -0.50054E-03   -0.17704E-04  8692   0.288E-02    0.112E-02
SOL:  51  -0.56585E+01    0.00000E+00   -0.56585E+01   132
  FERMI_SHIFT =     1.850733294705142     
RMM:  55    -0.929115854549E+02   -0.10532E-03   -0.15140E-05  7667   0.627E-03    0.744E-03
SOL:  52  -0.56636E+01    0.00000E+00   -0.56636E+01   131
  FERMI_SHIFT =     1.850730333643646     
RMM:  56    -0.929116968133E+02   -0.11136E-03   -0.70110E-06  7618   0.475E-03    0.553E-03
SOL:  53  -0.56638E+01    0.00000E+00   -0.56638E+01   122
  FERMI_SHIFT =     1.850733779723290     
RMM:  57    -0.929117212070E+02   -0.24394E-04   -0.96987E-07  6555   0.166E-03    0.454E-03
SOL:  54  -0.56632E+01    0.00000E+00   -0.56632E+01   123
  FERMI_SHIFT =     1.850733294705503     
RMM:  58    -0.929117328541E+02   -0.11647E-04   -0.14385E-06  6776   0.154E-03    0.225E-03
SOL:  55  -0.56632E+01    0.00000E+00   -0.56632E+01   118
  FERMI_SHIFT =     1.850730313521291     
RMM:  59    -0.929117366765E+02   -0.38224E-05   -0.24603E-07  5099   0.750E-04    0.151E-03
SOL:  56  -0.56631E+01    0.00000E+00   -0.56631E+01   117
  FERMI_SHIFT =     1.850730211628534     
RMM:  60    -0.929117387244E+02   -0.20480E-05   -0.10961E-07  4613   0.502E-04    0.102E-03
SOL:  57  -0.56632E+01    0.00000E+00   -0.56632E+01   113
  FERMI_SHIFT =     1.850701897051782     
RMM:  61    -0.929117388560E+02   -0.13155E-06   -0.71517E-08  4502   0.494E-04    0.587E-04
SOL:  58  -0.56631E+01    0.00000E+00   -0.56631E+01   111
  FERMI_SHIFT =     1.850730333644210     
RMM:  62    -0.929117391445E+02   -0.28848E-06   -0.18388E-08  3893   0.255E-04    0.352E-04
SOL:  59  -0.56631E+01    0.00000E+00   -0.56631E+01   111
  FERMI_SHIFT =     1.850701897047324     
RMM:  63    -0.929117393254E+02   -0.18091E-06   -0.77455E-09  3397   0.218E-04    0.197E-04
SOL:  60  -0.56631E+01    0.00000E+00   -0.56631E+01   106
  FERMI_SHIFT =     1.850730140254822     
RMM:  64    -0.929117393997E+02   -0.74273E-07   -0.36477E-09  2758   0.176E-04
SOL:  61  -0.56628E+01    0.00000E+00   -0.56628E+01   111
  FERMI_SHIFT =     1.850701675947445     
   1 F= -.10733931E+03 E0= -.10731505E+03  d E =-.485088E-01
