 vasp.6.4.1 05Apr23 (build Dec  4 2025 21:54:14) complex                         
 executed on    LinuxNV_CrayMPICH date 2025.12.05  17:55:22
 running  256 mpi-ranks, with    1 threads/rank, on    2 nodes
 distrk:  each k-point on   16 cores,   16 groups
 distr:  one band on NCORE=   2 cores,    8 groups


--------------------------------------------------------------------------------------------------------


 INCAR:
   SYSTEM = 'relax'
   NWRITE = 2
   ISTART = 0
   ICHARG = 1
   LWAVE = .FALSE.
   LCHARG = .TRUE.
   LREAL = AUTO
   LORBIT = 0
   ISYM = 2
   ALGO = Fast
   AMIN = 0.01
   ENCUT = 500
   PREC = Normal
   ISMEAR = 0
   SIGMA = 0.1
   ISPIN = 1
   NELM = 500
   EDIFF = 1E-7
   GGA = PE
   LASPH = .TRUE.
   LSORBIT = .FALSE.
   MAGMOM = 102*0.0
   IVDW = 20
   LDIPOL = .FALSE.
   IDIPOL = -1
   IBRION = -1
   EDIFFG = 1E-3
   NSW = 0
   ISIF = 2
   NFREE = 1
   POTIM = 0.5
   KPAR = 16
   NPAR = 8
   NCORE = 2
   NSIM = 4
   LSOL = .TRUE.
   EB_K = 78.4
   TAU = 0.0
   LRHOION = .FALSE.
   LAMBDA_D_K = 3.0
   SIGMA_K = 0.4
   NELECT = 374.5

 POTCAR:    PAW_PBE Ag 02Apr2005                  
 POTCAR:    PAW_PBE Ag 02Apr2005                  
   SHA256 =  6550cfa3543261e132c169e1b98a529204624d72be14e2da2e0242bcb74a174d Ag/POTCAR             
   COPYR  = (c) Copyright 02Apr2005 Georg Kresse                                                    
   COPYR  = This file is part of the software VASP. Any use, copying, and all other rights are regul
   COPYR  = If you do not have a valid VASP license, you may not use, copy or distribute this file. 
   VRHFIN =Ag : s1 d10                                                                              
   LEXCH  = PE                                                                                      
   EATOM  =  1037.2675 eV,   76.2370 Ry                                                             
                                                                                                    
   TITEL  = PAW_PBE Ag 02Apr2005                                                                    
   LULTRA =        F    use ultrasoft PP ?                                                          
   IUNSCR =        1    unscreen: 0-lin 1-nonlin 2-no                                               
   RPACOR =    2.000    partial core radius                                                         
   POMASS =  107.868; ZVAL   =   11.000    mass and valenz                                          
   RCORE  =    2.500    outmost cutoff radius                                                       
   RWIGS  =    2.840; RWIGS  =    1.503    wigner-seitz radius (au A)                               
   ENMAX  =  249.844; ENMIN  =  187.383 eV                                                          
   ICORE  =        3    local potential                                                             
   LCOR   =        T    correct aug charges                                                         
   LPAW   =        T    paw PP                                                                      
   EAUG   =  412.496                                                                                
   DEXC   =    0.000                                                                                
   RMAX   =    2.560    core radius for proj-oper                                                   
   RAUG   =    1.300    factor for augmentation sphere                                              
   RDEP   =    2.576    radius for radial grids                                                     
   RDEPT  =    2.072    core radius for aug-charge                                                  
                                                                                                    
   Atomic configuration                                                                             
   12 entries                                                                                       
     n  l   j            E        occ.                                                              
     1  0  0.50    -25324.9161   2.0000                                                             
     2  0  0.50     -3728.5341   2.0000                                                             
     2  1  1.50     -3344.0404   6.0000                                                             
     3  0  0.50      -683.5581   2.0000                                                             
     3  1  1.50      -557.3225   6.0000                                                             
     3  2  2.50      -358.3853  10.0000                                                             
     4  0  0.50       -95.0341   2.0000                                                             
     4  1  1.50       -58.5511   6.0000                                                             
     4  2  2.50        -7.4440  10.0000                                                             
     5  0  0.50        -4.4045   1.0000                                                             
     5  1  0.50        -1.3606   0.0000                                                             
     4  3  2.50        -1.3606   0.0000                                                             
   Description                                                                                      
     l       E           TYP  RCUT    TYP  RCUT                                                     
     2     -7.4439781     23  2.400                                                                 
     2     -8.8045607     23  2.400                                                                 
     0     -4.4044681     23  2.400                                                                 
     0      1.9520038     23  2.400                                                                 
     1     -1.3605826     23  2.500                                                                 
     1     27.2116520     23  2.500                                                                 
     3     -4.0817478     23  2.400                                                                 
  local pseudopotential read in
  partial core-charges read in
  partial kinetic energy density read in
  atomic valenz-charges read in
  non local Contribution for L=            2  read in
    real space projection operators read in
  non local Contribution for L=            2  read in
    real space projection operators read in
  non local Contribution for L=            0  read in
    real space projection operators read in
  non local Contribution for L=            0  read in
    real space projection operators read in
  non local Contribution for L=            1  read in
    real space projection operators read in
  non local Contribution for L=            1  read in
    real space projection operators read in
    PAW grid and wavefunctions read in
 
   number of l-projection  operators is LMAX  =            6
   number of lm-projection operators is LMMAX =           18
 
 Optimization of the real space projectors (new method)

 maximal supplied QI-value         = 15.12
 optimisation between [QCUT,QGAM] = [ 11.34, 22.83] = [ 36.00,145.93] Ry 
 Optimized for a Real-space Cutoff    1.43 Angstroem

   l    n(q)    QCUT    max X(q) W(low)/X(q) W(high)/X(q)  e(spline) 
   2      9    11.338    53.897    0.16E-03    0.20E-03    0.28E-06
   2      9    11.338    52.416    0.16E-03    0.20E-03    0.29E-06
   0     10    11.338   122.045    0.31E-04    0.76E-04    0.15E-06
   0     10    11.338    73.629    0.30E-04    0.72E-04    0.15E-06
   1      9    11.338    15.255    0.20E-03    0.19E-04    0.17E-06
   1      9    11.338     9.562    0.16E-03    0.15E-04    0.14E-06
  PAW_PBE Ag 02Apr2005                  :
 energy of atom  1       EATOM=-1037.2675
 kinetic energy error for atom=    0.0052 (will be added to EATOM!!)
 
 
 POSCAR: Ag
  positions in cartesian coordinates
  velocities in cartesian coordinates
 exchange correlation table for  LEXCH =        8
   RHO(1)=    0.500       N(1)  =     2000
   RHO(2)=  100.500       N(2)  =     4000
 


--------------------------------------------------------------------------------------------------------


 ion  position               nearest neighbor table
   1  0.750  0.750  0.695-  28 2.88  33 2.88  28 2.88  33 2.88  32 2.88  16 2.88  16 2.88  32 2.88
                            18 2.89  18 2.89  18 2.89  18 2.89
   2  0.250  0.250  0.305-   6 2.88   8 2.88   6 2.88   8 2.88   3 2.88  34 2.88   3 2.88  34 2.88
                            15 2.89  15 2.89  15 2.89  15 2.89
   3  0.750  0.250  0.272-   2 2.88  15 2.88  15 2.88   2 2.88  34 2.89  34 2.89  34 2.89  34 2.89
                             5 2.89   4 2.89   4 2.89   5 2.89
   4  0.250  0.250  0.239-   5 2.89   5 2.89   5 2.89   5 2.89   3 2.89  34 2.89  34 2.89   3 2.89

   5  0.750  0.750  0.239-   4 2.89   4 2.89   4 2.89   4 2.89  34 2.89   3 2.89  34 2.89   3 2.89

   6  0.750  0.250  0.337-   9 2.88  25 2.88  25 2.88   9 2.88   2 2.88  15 2.88   2 2.88  15 2.88
                             8 2.89   8 2.89   8 2.89   8 2.89
   7  0.250  0.750  0.467-  14 2.89  13 2.89  10 2.89  20 2.89  30 2.89  14 2.89  14 2.89  13 2.89
                            10 2.89  20 2.89  30 2.89  14 2.89
   8  0.250  0.750  0.337-   9 2.88  25 2.88  25 2.88   9 2.88   2 2.88  15 2.88   2 2.88  15 2.88
                             6 2.89   6 2.89   6 2.89   6 2.89
   9  0.250  0.250  0.370-   6 2.88   8 2.88   6 2.88   8 2.88  25 2.89  12 2.89  11 2.89  25 2.89
                            25 2.89  11 2.89  12 2.89  25 2.89
  10  0.750  0.750  0.435-  13 2.89   7 2.89  14 2.89  11 2.89  12 2.89  13 2.89  13 2.89   7 2.89
                            14 2.89  12 2.89  11 2.89  13 2.89
  11  0.750  0.250  0.402-  12 2.89   9 2.89  25 2.89  13 2.89  10 2.89  12 2.89  12 2.89   9 2.89
                            25 2.89  10 2.89  13 2.89  12 2.89
  12  0.250  0.750  0.402-  11 2.89   9 2.89  25 2.89  13 2.89  10 2.89  11 2.89  11 2.89   9 2.89
                            25 2.89  10 2.89  13 2.89  11 2.89
  13  0.250  0.250  0.435-  10 2.89   7 2.89  14 2.89  12 2.89  11 2.89  10 2.89  10 2.89  14 2.89
                             7 2.89  12 2.89  11 2.89  10 2.89
  14  0.750  0.250  0.467-   7 2.89  10 2.89  13 2.89  20 2.89  30 2.89   7 2.89   7 2.89  10 2.89
                            13 2.89  20 2.89  30 2.89   7 2.89
  15  0.750  0.750  0.305-   6 2.88   8 2.88   6 2.88   8 2.88   3 2.88  34 2.88   3 2.88  34 2.88
                             2 2.89   2 2.89   2 2.89   2 2.89
  16  0.250  0.750  0.728-   1 2.88  18 2.88   1 2.88  18 2.88  32 2.89  32 2.89  32 2.89  32 2.89
                            31 2.89  29 2.89  31 2.89  29 2.89
  17  0.750  0.750  0.630-  28 2.88  33 2.88  28 2.88  33 2.88  26 2.89  23 2.89  22 2.89  26 2.89
                            26 2.89  23 2.89  22 2.89  26 2.89
  18  0.250  0.250  0.695-  28 2.88  33 2.88  28 2.88  33 2.88  32 2.88  16 2.88  16 2.88  32 2.88
                             1 2.89   1 2.89   1 2.89   1 2.89
  19  0.750  0.250  0.533-  27 2.89  24 2.89  21 2.89  20 2.89  30 2.89  27 2.89  27 2.89  21 2.89
                            24 2.89  20 2.89  30 2.89  27 2.89
  20  0.750  0.750  0.500-  30 2.89  14 2.89  19 2.89  27 2.89   7 2.89  30 2.89  30 2.89  14 2.89
                             7 2.89  27 2.89  19 2.89  30 2.89
  21  0.250  0.250  0.565-  24 2.89  19 2.89  27 2.89  22 2.89  23 2.89  24 2.89  24 2.89  27 2.89
                            19 2.89  22 2.89  23 2.89  24 2.89
  22  0.250  0.750  0.598-  23 2.89  17 2.89  26 2.89  24 2.89  21 2.89  23 2.89  23 2.89  17 2.89
                            26 2.89  24 2.89  21 2.89  23 2.89
  23  0.750  0.250  0.598-  22 2.89  17 2.89  26 2.89  24 2.89  21 2.89  22 2.89  22 2.89  17 2.89
                            26 2.89  24 2.89  21 2.89  22 2.89
  24  0.750  0.750  0.565-  21 2.89  19 2.89  27 2.89  23 2.89  22 2.89  21 2.89  21 2.89  19 2.89
                            27 2.89  22 2.89  23 2.89  21 2.89
  25  0.750  0.750  0.370-   6 2.88   8 2.88   6 2.88   8 2.88   9 2.89  11 2.89  12 2.89   9 2.89
                             9 2.89  11 2.89  12 2.89   9 2.89
  26  0.250  0.250  0.630-  28 2.88  33 2.88  28 2.88  33 2.88  17 2.89  22 2.89  23 2.89  17 2.89
                            17 2.89  23 2.89  22 2.89  17 2.89
  27  0.250  0.750  0.533-  19 2.89  21 2.89  24 2.89  20 2.89  30 2.89  19 2.89  19 2.89  24 2.89
                            21 2.89  20 2.89  30 2.89  19 2.89
  28  0.750  0.250  0.663-  17 2.88  26 2.88  17 2.88  26 2.88   1 2.88  18 2.88  18 2.88   1 2.88
                            33 2.89  33 2.89  33 2.89  33 2.89
  29  0.750  0.750  0.761-  31 2.89  31 2.89  31 2.89  31 2.89  32 2.89  16 2.89  32 2.89  16 2.89

  30  0.250  0.250  0.500-  20 2.89  14 2.89  19 2.89   7 2.89  27 2.89  20 2.89  20 2.89   7 2.89
                            19 2.89  27 2.89  14 2.89  20 2.89
  31  0.250  0.250  0.761-  29 2.89  29 2.89  29 2.89  29 2.89  16 2.89  32 2.89  32 2.89  16 2.89

  32  0.750  0.250  0.728-   1 2.88  18 2.88   1 2.88  18 2.88  16 2.89  16 2.89  16 2.89  16 2.89
                            31 2.89  29 2.89  29 2.89  31 2.89
  33  0.250  0.750  0.663-  17 2.88  26 2.88  17 2.88  26 2.88   1 2.88  18 2.88  18 2.88   1 2.88
                            28 2.89  28 2.89  28 2.89  28 2.89
  34  0.250  0.750  0.272-   2 2.88  15 2.88  15 2.88   2 2.88   3 2.89   3 2.89   3 2.89   3 2.89
                             5 2.89   4 2.89   5 2.89   4 2.89
 
  LATTYP: Found a simple tetragonal cell.
 ALAT       =     4.0859999657
 C/A-ratio  =    15.3291746124
  
  Lattice vectors:
  
 A1 = (   4.0859999657,   0.0000000000,   0.0000000000)
 A2 = (   0.0000000000,   4.0859999657,   0.0000000000)
 A3 = (   0.0000000000,   0.0000000000,  62.6350069404)


Analysis of symmetry for initial positions (statically):
=====================================================================
 Subroutine PRICEL returns following result:
 
  LATTYP: Found a simple tetragonal cell.
 ALAT       =     2.8892382837
 C/A-ratio  =    21.6787266368
  
  Lattice vectors:
  
 A1 = (   2.0429999831,  -2.0429999826,   0.0000000000)
 A2 = (   2.0429999831,   2.0429999831,   0.0000000000)
 A3 = (   0.0000000000,   0.0000000000,  62.6350069404)
 
   2 primitive cells build up your supercell.
 

 Routine SETGRP: Setting up the symmetry group for a 
 simple tetragonal supercell.


 Subroutine GETGRP returns: Found 16 space group operations
 (whereof  8 operations were pure point group operations)
 out of a pool of 16 trial point group operations.


The static configuration has the point symmetry D_2h.
 The point group associated with its full space group is D_4h.


Analysis of symmetry for dynamics (positions and initial velocities):
=====================================================================
 Subroutine PRICEL returns following result:
 
  LATTYP: Found a simple tetragonal cell.
 ALAT       =     2.8892382837
 C/A-ratio  =    21.6787266368
  
  Lattice vectors:
  
 A1 = (   2.0429999831,  -2.0429999826,   0.0000000000)
 A2 = (   2.0429999831,   2.0429999831,   0.0000000000)
 A3 = (   0.0000000000,   0.0000000000,  62.6350069404)
 
   2 primitive cells build up your supercell.
 

 Routine SETGRP: Setting up the symmetry group for a 
 simple tetragonal supercell.


 Subroutine GETGRP returns: Found 16 space group operations
 (whereof  8 operations were pure point group operations)
 out of a pool of 16 trial point group operations.


The dynamic configuration has the point symmetry D_2h.
 The point group associated with its full space group is D_4h.


Analysis of constrained symmetry for selective dynamics:
=====================================================================
 Subroutine PRICEL returns following result:
 
  LATTYP: Found a simple tetragonal cell.
 ALAT       =     2.8892382837
 C/A-ratio  =    21.6787266368
  
  Lattice vectors:
  
 A1 = (   2.0429999831,  -2.0429999826,   0.0000000000)
 A2 = (   2.0429999831,   2.0429999831,   0.0000000000)
 A3 = (   0.0000000000,   0.0000000000,  62.6350069404)
 
   2 primitive cells build up your supercell.
 

 Routine SETGRP: Setting up the symmetry group for a 
 simple tetragonal supercell.


 Subroutine GETGRP returns: Found 16 space group operations
 (whereof  8 operations were pure point group operations)
 out of a pool of 16 trial point group operations.


The constrained configuration has the point symmetry D_2h.
 The point group associated with its full space group is D_4h.


 Subroutine INISYM returns: Found 16 space group operations
 (whereof  8 operations are pure point group operations),
 and found     2 'primitive' translations


----------------------------------------------------------------------------------------

                                     Primitive cell                                     

  volume of cell :     522.8581

  direct lattice vectors                    reciprocal lattice vectors
     2.042999983 -2.042999983  0.000000000     0.244738132 -0.244738132  0.000000000
     2.042999983  2.042999983  0.000000000     0.244738132  0.244738132 -0.000000000
     0.000000000  0.000000000 62.635006940    -0.000000000  0.000000000  0.015965513

  length of vectors
     2.889238284  2.889238284 62.635006940     0.346111986  0.346111986  0.015965513

  position of ions in fractional coordinates (direct lattice)
     1.000000000  0.500000000  0.695365957
     1.000000000  0.500000000  0.304634043
     0.500000000  1.000000000  0.272114558
     1.000000000  0.500000000  0.239482691
     0.500000000  1.000000000  0.337085117
     0.500000000  1.000000000  0.467382458
     1.000000000  0.500000000  0.369529831
     1.000000000  0.500000000  0.434764916
     0.500000000  1.000000000  0.402147373
     0.500000000  1.000000000  0.727885442
     1.000000000  0.500000000  0.630470169
     0.500000000  1.000000000  0.532617542
     1.000000000  0.500000000  0.500000000
     1.000000000  0.500000000  0.565235084
     0.500000000  1.000000000  0.597852627
     0.500000000  1.000000000  0.662914883
     1.000000000  0.500000000  0.760517309

  ion indices of the primitive-cell ions
   primitive index   ion index
                 1           1
                 2          15
                 3           3
                 4           5
                 5           6
                 6           7
                 7          25
                 8          10
                 9          11
                10          16
                11          17
                12          19
                13          20
                14          24
                15          22
                16          28
                17          29

----------------------------------------------------------------------------------------

 
 
 KPOINTS: uniform k-point mesh                    

Automatic generation of k-mesh.
 Grid dimensions read from file:
 generate k-points for:    8    8    1

 Generating k-lattice:

  Cartesian coordinates                     Fractional coordinates (reciprocal lattice)
     0.030592267  0.000000000  0.000000000     0.125000000  0.000000000  0.000000000
     0.000000000  0.030592267  0.000000000     0.000000000  0.125000000  0.000000000
     0.000000000  0.000000000  0.015965513     0.000000000  0.000000000  1.000000000

  Length of vectors
     0.030592267  0.030592267  0.015965513

  Shift w.r.t. Gamma in fractional coordinates (k-lattice)
     0.000000000  0.000000000  0.000000000

 
 Subroutine IBZKPT returns following result:
 ===========================================
 
 Found     15 irreducible k-points:
 
 Following reciprocal coordinates:
            Coordinates               Weight
  0.000000  0.000000  0.000000      1.000000
  0.125000  0.000000  0.000000      4.000000
  0.250000  0.000000  0.000000      4.000000
  0.375000  0.000000  0.000000      4.000000
  0.500000  0.000000  0.000000      2.000000
  0.125000  0.125000  0.000000      4.000000
  0.250000  0.125000  0.000000      8.000000
  0.375000  0.125000  0.000000      8.000000
  0.500000  0.125000  0.000000      4.000000
  0.250000  0.250000  0.000000      4.000000
  0.375000  0.250000  0.000000      8.000000
  0.500000  0.250000  0.000000      4.000000
  0.375000  0.375000  0.000000      4.000000
  0.500000  0.375000  0.000000      4.000000
  0.500000  0.500000  0.000000      1.000000
 
 Following cartesian coordinates:
            Coordinates               Weight
  0.000000  0.000000  0.000000      1.000000
  0.030592  0.000000  0.000000      4.000000
  0.061185  0.000000  0.000000      4.000000
  0.091777  0.000000  0.000000      4.000000
  0.122369  0.000000  0.000000      2.000000
  0.030592  0.030592  0.000000      4.000000
  0.061185  0.030592  0.000000      8.000000
  0.091777  0.030592  0.000000      8.000000
  0.122369  0.030592  0.000000      4.000000
  0.061185  0.061185  0.000000      4.000000
  0.091777  0.061185  0.000000      8.000000
  0.122369  0.061185  0.000000      4.000000
  0.091777  0.091777  0.000000      4.000000
  0.122369  0.091777  0.000000      4.000000
  0.122369  0.122369  0.000000      1.000000
 


--------------------------------------------------------------------------------------------------------




 Dimension of arrays:
   k-points           NKPTS =     15   k-points in BZ     NKDIM =     15   number of bands    NBANDS=    224
   number of dos      NEDOS =    301   number of ions     NIONS =     34
   non local maximal  LDIM  =      6   non local SUM 2l+1 LMDIM =     18
   total plane-waves  NPLWV = 201600
   max r-space proj   IRMAX =   2418   max aug-charges    IRDMAX=   9677
   dimension x,y,z NGX =    24 NGY =   24 NGZ =  350
   dimension x,y,z NGXF=    48 NGYF=   48 NGZF=  700
   support grid    NGXF=    48 NGYF=   48 NGZF=  700
   ions per type =              34
   NGX,Y,Z   is equivalent  to a cutoff of   9.76,  9.76,  9.29 a.u.
   NGXF,Y,Z  is equivalent  to a cutoff of  19.53, 19.53, 18.58 a.u.

 SYSTEM =  'relax'                                 
 POSCAR =  Ag                                      

 Startparameter for this run:
   NWRITE =      2    write-flag & timer
   PREC   = normal    normal or accurate (medium, high low for compatibility)
   ISTART =      0    job   : 0-new  1-cont  2-samecut
   ICHARG =      1    charge: 1-file 2-atom 10-const
   ISPIN  =      1    spin polarized calculation?
   LNONCOLLINEAR =      F non collinear calculations
   LSORBIT =      F    spin-orbit coupling
   INIWAV =      1    electr: 0-lowe 1-rand  2-diag
   LASPH  =      T    aspherical Exc in radial PAW
 Electronic Relaxation 1
   ENCUT  =  500.0 eV  36.75 Ry    6.06 a.u.   7.45  7.45114.20*2*pi/ulx,y,z
   ENINI  =  500.0     initial cutoff
   ENAUG  =  412.5 eV  augmentation charge cutoff
   NELM   =    500;   NELMIN=  2; NELMDL= -5     # of ELM steps 
   EDIFF  = 0.1E-06   stopping-criterion for ELM
   LREAL  =      T    real-space projection
   NLSPLINE    = F    spline interpolate recip. space projectors
   LCOMPAT=      F    compatible to vasp.4.4
   GGA_COMPAT  = T    GGA compatible to vasp.4.4-vasp.4.6
   LMAXPAW     = -100 max onsite density
   LMAXMIX     =    2 max onsite mixed and CHGCAR
   VOSKOWN=      0    Vosko Wilk Nusair interpolation
   ROPT   =   -0.00050
 Ionic relaxation
   EDIFFG = 0.1E-02   stopping-criterion for IOM
   NSW    =      0    number of steps for IOM
   NBLOCK =      1;   KBLOCK =      1    inner block; outer block 
   IBRION =     -1    ionic relax: 0-MD 1-quasi-New 2-CG
   NFREE  =      1    steps in history (QN), initial steepest desc. (CG)
   ISIF   =      2    stress and relaxation
   IWAVPR =     10    prediction:  0-non 1-charg 2-wave 3-comb
   ISYM   =      2    0-nonsym 1-usesym 2-fastsym
   LCORR  =      T    Harris-Foulkes like correction to forces

   POTIM  = 0.5000    time-step for ionic-motion
   TEIN   =    0.0    initial temperature
   TEBEG  =    0.0;   TEEND  =   0.0 temperature during run
   SMASS  =  -3.00    Nose mass-parameter (am)
   estimated Nose-frequenzy (Omega)   =  0.10E-29 period in steps = 0.13E+47 mass=  -0.382E-27a.u.
   SCALEE = 1.0000    scale energy and forces
   NPACO  =    256;   APACO  = 10.0  distance and # of slots for P.C.
   PSTRESS=    0.0 pullay stress

  Mass of Ions in am
   POMASS = 107.87
  Ionic Valenz
   ZVAL   =  11.00
  Atomic Wigner-Seitz radii
   RWIGS  =  -1.00
  virtual crystal weights 
   VCA    =   1.00
   NELECT =     374.5000    total number of electrons
   NUPDOWN=      -1.0000    fix difference up-down

 DOS related values:
   EMIN   =  10.00;   EMAX   =-10.00  energy-range for DOS
   EFERMI =   0.00;   METHOD = LEGACY      
   ISMEAR =     0;   SIGMA  =   0.10  broadening in eV -4-tet -1-fermi 0-gaus

 Electronic relaxation 2 (details)
   IALGO  =     68    algorithm
   LDIAG  =      T    sub-space diagonalisation (order eigenvalues)
   LSUBROT=      F    optimize rotation matrix (better conditioning)
   TURBO    =      0    0=normal 1=particle mesh
   IRESTART =      0    0=no restart 2=restart with 2 vectors
   NREBOOT  =      0    no. of reboots
   NMIN     =      0    reboot dimension
   EREF     =   0.00    reference energy to select bands
   IMIX   =      4    mixing-type and parameters
     AMIX     =   0.40;   BMIX     =  1.00
     AMIX_MAG =   1.60;   BMIX_MAG =  1.00
     AMIN     =   0.01
     WC   =   100.;   INIMIX=   1;  MIXPRE=   1;  MAXMIX= -45

 Intra band minimization:
   WEIMIN = 0.0000     energy-eigenvalue tresh-hold
   EBREAK =  0.11E-09  absolut break condition
   DEPER  =   0.30     relativ break condition  

   TIME   =   0.40     timestep for ELM

  volume/ion in A,a.u.               =      30.76       207.55
  Fermi-wavevector in a.u.,A,eV,Ry     =   1.162575  2.196947 18.389358  1.351580
  Thomas-Fermi vector in A             =   2.299134
 
 Write flags
   LWAVE        =      F    write WAVECAR
   LDOWNSAMPLE  =      F    k-point downsampling of WAVECAR
   LCHARG       =      T    write CHGCAR
   LVTOT        =      F    write LOCPOT, total local potential
   LVHAR        =      F    write LOCPOT, Hartree potential only
   LELF         =      F    write electronic localiz. function (ELF)
   LORBIT       =      0    0 simple, 1 ext, 2 COOP (PROOUT), +10 PAW based schemes


 Dipole corrections
   LMONO  =      F    monopole corrections only (constant potential shift)
   LDIPOL =      F    correct potential (dipole corrections)
   IDIPOL =     -1    1-x, 2-y, 3-z, 4-all directions 
   EPSILON=  1.0000000 bulk dielectric constant

 Exchange correlation treatment:
   GGA     =    PE    GGA type
   LEXCH   =     8    internal setting for exchange type
   LIBXC   =     F    Libxc                    
   VOSKOWN =     0    Vosko Wilk Nusair interpolation
   LHFCALC =     F    Hartree Fock is set to
   LHFONE  =     F    Hartree Fock one center treatment
   AEXX    =    0.0000 exact exchange contribution

 Linear response parameters
   LEPSILON=     F    determine dielectric tensor
   LRPA    =     F    only Hartree local field effects (RPA)
   LNABLA  =     F    use nabla operator in PAW spheres
   LVEL    =     F    velocity operator in full k-point grid
   CSHIFT  =0.1000    complex shift for real part using Kramers Kronig
   OMEGAMAX=  -1.0    maximum frequency
   DEG_THRESHOLD= 0.2000000E-02 threshold for treating states as degnerate
   RTIME   =   -0.100 relaxation time in fs
  (WPLASMAI=    0.000 imaginary part of plasma frequency in eV, 0.658/RTIME)
   DFIELD  = 0.0000000 0.0000000 0.0000000 field for delta impulse in time
 
  Optional k-point grid parameters
   LKPOINTS_OPT  =     F    use optional k-point grid
   KPOINTS_OPT_MODE=     1    mode for optional k-point grid
 
 Orbital magnetization related:
   ORBITALMAG=     F  switch on orbital magnetization
   LCHIMAG   =     F  perturbation theory with respect to B field
   DQ        =  0.001000  dq finite difference perturbation B field
   LLRAUG    =     F  two centre corrections for induced B field
   LBONE     =     F  B-component reconstruction in AE one-centre
   LVGVCALC  =     T  calculate vGv susceptibility
   LVGVAPPL  =     F  apply vGv susceptibility instead of pGv for G=0

 Random number generation:
   RANDOM_GENERATOR = DEFAULT
   PCG_SEED         = not used
 Solvation model:
   LSOL    =     T         switch on solvation model
   EB_K    = 78.400000     relative permittivity of the bulk solvent
   SIGMA_K =  0.400000     width of the dielectric cavity
   NC_K    =  0.002500     cutoff charge density
   TAU     =  0.000000     cavity surface tension
   LAMBDA_D_K    =  3.000000     Debye length in Angstroms
   LRHOB     =     F     write boundcharge  density
   LRHOION     =     F     write ioniccharge density



--------------------------------------------------------------------------------------------------------


 Static calculation
 charge density and potential will be updated during run
 non-spin polarized calculation
 RMM-DIIS sequential band-by-band and
  variant of blocked Davidson during initial phase
 perform sub-space diagonalisation
    before iterative eigenvector-optimisation
 modified Broyden-mixing scheme, WC =      100.0
 initial mixing is a Kerker type mixing with AMIX =  0.4000 and BMIX =      1.0000
 Hartree-type preconditioning will be used
 using additional bands            36
 real space projection scheme for non local part
 use partial core corrections
 calculate Harris-corrections to forces 
   (improved forces if not selfconsistent)
 use gradient corrections 
 use of overlap-Matrix (Vanderbilt PP)
 Gauss-broadening in eV      SIGMA  =   0.10


--------------------------------------------------------------------------------------------------------


  energy-cutoff  :      500.00
  volume of cell :     1045.72
      direct lattice vectors                 reciprocal lattice vectors
     4.085999966  0.000000000  0.000000000     0.244738132  0.000000000  0.000000000
     0.000000000  4.085999966  0.000000000     0.000000000  0.244738132  0.000000000
     0.000000000  0.000000000 62.635006940     0.000000000  0.000000000  0.015965513

  length of vectors
     4.085999966  4.085999966 62.635006940     0.244738132  0.244738132  0.015965513


 
 k-points in units of 2pi/SCALE and weight: uniform k-point mesh                    
   0.00000000  0.00000000  0.00000000       0.016
   0.03059227  0.00000000  0.00000000       0.063
   0.06118453  0.00000000  0.00000000       0.063
   0.09177680  0.00000000  0.00000000       0.063
   0.12236907  0.00000000  0.00000000       0.031
   0.03059227  0.03059227  0.00000000       0.063
   0.06118453  0.03059227  0.00000000       0.125
   0.09177680  0.03059227  0.00000000       0.125
   0.12236907  0.03059227  0.00000000       0.063
   0.06118453  0.06118453  0.00000000       0.063
   0.09177680  0.06118453  0.00000000       0.125
   0.12236907  0.06118453  0.00000000       0.063
   0.09177680  0.09177680  0.00000000       0.063
   0.12236907  0.09177680  0.00000000       0.063
   0.12236907  0.12236907  0.00000000       0.016
 
 k-points in reciprocal lattice and weights: uniform k-point mesh                    
   0.00000000  0.00000000  0.00000000       0.016
   0.12500000  0.00000000  0.00000000       0.063
   0.25000000  0.00000000  0.00000000       0.063
   0.37500000  0.00000000  0.00000000       0.063
   0.50000000  0.00000000  0.00000000       0.031
   0.12500000  0.12500000  0.00000000       0.063
   0.25000000  0.12500000  0.00000000       0.125
   0.37500000  0.12500000  0.00000000       0.125
   0.50000000  0.12500000  0.00000000       0.063
   0.25000000  0.25000000  0.00000000       0.063
   0.37500000  0.25000000  0.00000000       0.125
   0.50000000  0.25000000  0.00000000       0.063
   0.37500000  0.37500000  0.00000000       0.063
   0.50000000  0.37500000  0.00000000       0.063
   0.50000000  0.50000000  0.00000000       0.016
 
 position of ions in fractional coordinates (direct lattice) 
   0.75000000  0.75000000  0.69536596
   0.25000000  0.25000000  0.30463404
   0.75000000  0.25000000  0.27211456
   0.25000000  0.25000000  0.23948269
   0.75000000  0.75000000  0.23948269
   0.75000000  0.25000000  0.33708512
   0.25000000  0.75000000  0.46738246
   0.25000000  0.75000000  0.33708512
   0.25000000  0.25000000  0.36952983
   0.75000000  0.75000000  0.43476492
   0.75000000  0.25000000  0.40214737
   0.25000000  0.75000000  0.40214737
   0.25000000  0.25000000  0.43476492
   0.75000000  0.25000000  0.46738246
   0.75000000  0.75000000  0.30463404
   0.25000000  0.75000000  0.72788544
   0.75000000  0.75000000  0.63047017
   0.25000000  0.25000000  0.69536596
   0.75000000  0.25000000  0.53261754
   0.75000000  0.75000000  0.50000000
   0.25000000  0.25000000  0.56523508
   0.25000000  0.75000000  0.59785263
   0.75000000  0.25000000  0.59785263
   0.75000000  0.75000000  0.56523508
   0.75000000  0.75000000  0.36952983
   0.25000000  0.25000000  0.63047017
   0.25000000  0.75000000  0.53261754
   0.75000000  0.25000000  0.66291488
   0.75000000  0.75000000  0.76051731
   0.25000000  0.25000000  0.50000000
   0.25000000  0.25000000  0.76051731
   0.75000000  0.25000000  0.72788544
   0.25000000  0.75000000  0.66291488
   0.25000000  0.75000000  0.27211456
 
 position of ions in cartesian coordinates  (Angst):
   3.06449997  3.06449997 43.55425156
   1.02149999  1.02149999 19.08075538
   3.06449997  1.02149999 17.04389725
   1.02149999  1.02149999 15.00000000
   3.06449997  3.06449997 15.00000000
   3.06449997  1.02149999 21.11332865
   1.02149999  3.06449997 29.27450349
   1.02149999  3.06449997 21.11332865
   1.02149999  1.02149999 23.14550354
   3.06449997  3.06449997 27.23150350
   3.06449997  1.02149999 25.18850352
   1.02149999  3.06449997 25.18850352
   1.02149999  1.02149999 27.23150350
   3.06449997  1.02149999 29.27450349
   3.06449997  3.06449997 19.08075538
   1.02149999  3.06449997 45.59110969
   3.06449997  3.06449997 39.48950340
   1.02149999  1.02149999 43.55425156
   3.06449997  1.02149999 33.36050345
   3.06449997  3.06449997 31.31750347
   1.02149999  1.02149999 35.40350344
   1.02149999  3.06449997 37.44650342
   3.06449997  1.02149999 37.44650342
   3.06449997  3.06449997 35.40350344
   3.06449997  3.06449997 23.14550354
   1.02149999  1.02149999 39.48950340
   1.02149999  3.06449997 33.36050345
   3.06449997  1.02149999 41.52167829
   3.06449997  3.06449997 47.63500694
   1.02149999  1.02149999 31.31750347
   1.02149999  1.02149999 47.63500694
   3.06449997  1.02149999 45.59110969
   1.02149999  3.06449997 41.52167829
   1.02149999  3.06449997 17.04389725
 


--------------------------------------------------------------------------------------------------------


 k-point   1 :   0.0000 0.0000 0.0000  plane waves:   26757
 k-point   2 :   0.1250 0.0000 0.0000  plane waves:   26727
 k-point   3 :   0.2500 0.0000 0.0000  plane waves:   26631
 k-point   4 :   0.3750 0.0000 0.0000  plane waves:   26521
 k-point   5 :   0.5000 0.0000 0.0000  plane waves:   26422
 k-point   6 :   0.1250 0.1250 0.0000  plane waves:   26661
 k-point   7 :   0.2500 0.1250 0.0000  plane waves:   26583
 k-point   8 :   0.3750 0.1250 0.0000  plane waves:   26506
 k-point   9 :   0.5000 0.1250 0.0000  plane waves:   26500
 k-point  10 :   0.2500 0.2500 0.0000  plane waves:   26533
 k-point  11 :   0.3750 0.2500 0.0000  plane waves:   26531
 k-point  12 :   0.5000 0.2500 0.0000  plane waves:   26472
 k-point  13 :   0.3750 0.3750 0.0000  plane waves:   26514
 k-point  14 :   0.5000 0.3750 0.0000  plane waves:   26452
 k-point  15 :   0.5000 0.5000 0.0000  plane waves:   26476

 maximum and minimum number of plane-waves per node :     13419    13186

 maximum number of plane-waves:     26757
 maximum index in each direction: 
   IXMAX=    7   IYMAX=    7   IZMAX=  114
   IXMIN=   -7   IYMIN=   -7   IZMIN= -114


 real space projection operators:
  total allocation   :      11029.78 KBytes
  max/ min on nodes  :       5531.63       5498.16


 parallel 3D FFT for wavefunctions:
    minimum data exchange during FFTs selected (reduces bandwidth)
 parallel 3D FFT for charge:
    minimum data exchange during FFTs selected (reduces bandwidth)


 total amount of memory used by VASP MPI-rank0   145546. kBytes
=======================================================================

   base      :      30000. kBytes
   nonlr-proj:       8141. kBytes
   fftplans  :       6489. kBytes
   grid      :       8884. kBytes
   one-center:        264. kBytes
   wavefun   :      91768. kBytes
 
     INWAV:  cpu time      0.0001: real time      0.0001
 Broyden mixing: mesh for mixing (old mesh)
   NGX = 15   NGY = 15   NGZ =229
  (NGX  = 48   NGY  = 48   NGZ  =700)
  gives a total of  51525 points

 initial charge density was supplied:
 charge density of overlapping atoms calculated
 number of electron     374.0000000 magnetization 
 keeping initial charge density in first step


--------------------------------------------------------------------------------------------------------


 Maximum index for non-local projection operator          1162
 Maximum index for augmentation-charges           571 (set IRDMAX)


--------------------------------------------------------------------------------------------------------


 First call to EWALD:  gamma=   0.175
 Maximum number of real-space cells 6x 6x 1
 Maximum number of reciprocal cells 1x 1x14

    FEWALD:  cpu time      0.0086: real time      0.0086


--------------------------------------- Ionic step        1  -------------------------------------------




--------------------------------------- Iteration      1(   1)  ---------------------------------------


    POTLOK:  cpu time      5.9354: real time      5.9392
    SETDIJ:  cpu time      0.0268: real time      0.0267
     EDDAV:  cpu time      2.1921: real time      2.1931
       DOS:  cpu time      0.0024: real time      0.0025
    --------------------------------------------
      LOOP:  cpu time      8.1567: real time      8.1614

 eigenvalue-minimisations  :  6760
 total energy-change (2. order) : 0.2533631E+04  (-0.1814297E+05)
 number of electron     374.0000000 magnetization 
 augmentation part      374.0000000 magnetization 

 Free energy of the ion-electron system (eV)
  ---------------------------------------------------
  alpha Z        PSCENC =       940.28209813
  Ewald energy   TEWEN  =    758194.41586537
  -Hartree energ DENC   =   -795313.42200723
  -exchange      EXHF   =         0.00000000
  -V(xc)+E(xc)   XCENC  =      -355.94567066
  PAW double counting   =     34117.71307710   -32549.87532384
  entropy T*S    EENTRO =        -0.05372003
  eigenvalues    EBANDS =     -1194.54355634
  atomic energy  EATOM  =     35266.91851613
  Solvation  Ediel_sol  =      3428.14150343
  ---------------------------------------------------
  free energy    TOTEN  =      2533.63078207 eV

  energy without entropy =     2533.68450210  energy(sigma->0) =     2533.65764209


--------------------------------------------------------------------------------------------------------




--------------------------------------- Iteration      1(   2)  ---------------------------------------


     EDDAV:  cpu time      2.2806: real time      2.2814
       DOS:  cpu time      0.0021: real time      0.0021
    --------------------------------------------
      LOOP:  cpu time      2.2827: real time      2.2835

 eigenvalue-minimisations  :  7128
 total energy-change (2. order) :-0.2544755E+04  (-0.2426925E+04)
 number of electron     374.0000000 magnetization 
 augmentation part      374.0000000 magnetization 

 Free energy of the ion-electron system (eV)
  ---------------------------------------------------
  alpha Z        PSCENC =       940.28209813
  Ewald energy   TEWEN  =    758194.41586537
  -Hartree energ DENC   =   -795313.42200723
  -exchange      EXHF   =         0.00000000
  -V(xc)+E(xc)   XCENC  =      -355.94567066
  PAW double counting   =     34117.71307710   -32549.87532384
  entropy T*S    EENTRO =        -0.05068244
  eigenvalues    EBANDS =     -3739.30147617
  atomic energy  EATOM  =     35266.91851613
  Solvation  Ediel_sol  =      3428.14150343
  ---------------------------------------------------
  free energy    TOTEN  =       -11.12410017 eV

  energy without entropy =      -11.07341773  energy(sigma->0) =      -11.09875895


--------------------------------------------------------------------------------------------------------




--------------------------------------- Iteration      1(   3)  ---------------------------------------


     EDDAV:  cpu time      2.3172: real time      2.3228
       DOS:  cpu time      0.0020: real time      0.0020
    --------------------------------------------
      LOOP:  cpu time      2.3192: real time      2.3248

 eigenvalue-minimisations  :  7280
 total energy-change (2. order) :-0.8934388E+02  (-0.8705159E+02)
 number of electron     374.0000000 magnetization 
 augmentation part      374.0000000 magnetization 

 Free energy of the ion-electron system (eV)
  ---------------------------------------------------
  alpha Z        PSCENC =       940.28209813
  Ewald energy   TEWEN  =    758194.41586537
  -Hartree energ DENC   =   -795313.42200723
  -exchange      EXHF   =         0.00000000
  -V(xc)+E(xc)   XCENC  =      -355.94567066
  PAW double counting   =     34117.71307710   -32549.87532384
  entropy T*S    EENTRO =        -0.05739807
  eigenvalues    EBANDS =     -3828.63863727
  atomic energy  EATOM  =     35266.91851613
  Solvation  Ediel_sol  =      3428.14150343
  ---------------------------------------------------
  free energy    TOTEN  =      -100.46797690 eV

  energy without entropy =     -100.41057883  energy(sigma->0) =     -100.43927786


--------------------------------------------------------------------------------------------------------




--------------------------------------- Iteration      1(   4)  ---------------------------------------


     EDDAV:  cpu time      2.4358: real time      2.4366
       DOS:  cpu time      0.0016: real time      0.0016
    --------------------------------------------
      LOOP:  cpu time      2.4374: real time      2.4381

 eigenvalue-minimisations  :  7544
 total energy-change (2. order) :-0.1446079E+01  (-0.1439156E+01)
 number of electron     374.0000000 magnetization 
 augmentation part      374.0000000 magnetization 

 Free energy of the ion-electron system (eV)
  ---------------------------------------------------
  alpha Z        PSCENC =       940.28209813
  Ewald energy   TEWEN  =    758194.41586537
  -Hartree energ DENC   =   -795313.42200723
  -exchange      EXHF   =         0.00000000
  -V(xc)+E(xc)   XCENC  =      -355.94567066
  PAW double counting   =     34117.71307710   -32549.87532384
  entropy T*S    EENTRO =        -0.05768411
  eigenvalues    EBANDS =     -3830.08443061
  atomic energy  EATOM  =     35266.91851613
  Solvation  Ediel_sol  =      3428.14150343
  ---------------------------------------------------
  free energy    TOTEN  =      -101.91405628 eV

  energy without entropy =     -101.85637217  energy(sigma->0) =     -101.88521422


--------------------------------------------------------------------------------------------------------




--------------------------------------- Iteration      1(   5)  ---------------------------------------


     EDDAV:  cpu time      2.3895: real time      2.3958
       DOS:  cpu time      0.0020: real time      0.0020
    CHARGE:  cpu time      0.0917: real time      0.0917
    MIXING:  cpu time      0.0049: real time      0.0049
    --------------------------------------------
      LOOP:  cpu time      2.4881: real time      2.4944

 eigenvalue-minimisations  :  7704
 total energy-change (2. order) :-0.3228455E-01  (-0.3226731E-01)
 number of electron     374.5000563 magnetization 
 augmentation part      172.7363329 magnetization 

 Broyden mixing:
  rms(total) = 0.29839E+01    rms(broyden)= 0.29838E+01
  rms(prec ) = 0.29958E+01
  weight for this iteration     100.00

 Free energy of the ion-electron system (eV)
  ---------------------------------------------------
  alpha Z        PSCENC =       940.28209813
  Ewald energy   TEWEN  =    758194.41586537
  -Hartree energ DENC   =   -795313.42200723
  -exchange      EXHF   =         0.00000000
  -V(xc)+E(xc)   XCENC  =      -355.94567066
  PAW double counting   =     34117.71307710   -32549.87532384
  entropy T*S    EENTRO =        -0.05766736
  eigenvalues    EBANDS =     -3830.11673191
  atomic energy  EATOM  =     35266.91851613
  Solvation  Ediel_sol  =      3428.14150343
  ---------------------------------------------------
  free energy    TOTEN  =      -101.94634083 eV

  energy without entropy =     -101.88867347  energy(sigma->0) =     -101.91750715


--------------------------------------------------------------------------------------------------------




--------------------------------------- Iteration      1(   6)  ---------------------------------------


    POTLOK:  cpu time      5.3863: real time      5.3968
    SETDIJ:  cpu time      0.0873: real time      0.0873
    EDDIAG:  cpu time      0.2511: real time      0.2511
  RMM-DIIS:  cpu time      1.1508: real time      1.1509
    ORTHCH:  cpu time      0.0772: real time      0.0772
       DOS:  cpu time      0.0023: real time      0.0022
    CHARGE:  cpu time      0.0924: real time      0.0924
    MIXING:  cpu time      0.0032: real time      0.0032
    --------------------------------------------
      LOOP:  cpu time      7.0506: real time      7.0612

 eigenvalue-minimisations  :  8493
 total energy-change (2. order) :-0.1375462E+03  (-0.9855147E+01)
 number of electron     374.5000540 magnetization 
 augmentation part      166.4930840 magnetization 

 Broyden mixing:
  rms(total) = 0.56420E+01    rms(broyden)= 0.56420E+01
  rms(prec ) = 0.91021E+01
  weight for this iteration     100.00

 eigenvalues of (default mixing * dielectric matrix)
  average eigenvalue GAMMA=   0.0215
  0.0215

 Free energy of the ion-electron system (eV)
  ---------------------------------------------------
  alpha Z        PSCENC =       940.28209813
  Ewald energy   TEWEN  =    758194.41586537
  -Hartree energ DENC   =   -795027.84679293
  -exchange      EXHF   =         0.00000000
  -V(xc)+E(xc)   XCENC  =      -366.39161770
  PAW double counting   =     35667.33617925   -34134.69336381
  entropy T*S    EENTRO =        -0.15643898
  eigenvalues    EBANDS =      -209.79728275
  atomic energy  EATOM  =     35266.91851613
  Solvation  Ediel_sol  =      -569.55970136
  ---------------------------------------------------
  free energy    TOTEN  =      -239.49253866 eV

  energy without entropy =     -239.33609968  energy(sigma->0) =     -239.41431917


--------------------------------------------------------------------------------------------------------




--------------------------------------- Iteration      1(   7)  ---------------------------------------


    POTLOK:  cpu time      5.3091: real time      5.3165
    SETDIJ:  cpu time      0.0609: real time      0.0609
    EDDIAG:  cpu time      0.2587: real time      0.2587
  RMM-DIIS:  cpu time      1.2753: real time      1.2754
    ORTHCH:  cpu time      0.0778: real time      0.0778
       DOS:  cpu time      0.0026: real time      0.0026
    CHARGE:  cpu time      0.0948: real time      0.0948
    MIXING:  cpu time      0.0034: real time      0.0034
    --------------------------------------------
      LOOP:  cpu time      7.0828: real time      7.0903

 eigenvalue-minimisations  :  9573
 total energy-change (2. order) : 0.4128433E+01  (-0.3494160E+01)
 number of electron     374.5000542 magnetization 
 augmentation part      166.4527586 magnetization 

 Broyden mixing:
  rms(total) = 0.53945E+01    rms(broyden)= 0.53945E+01
  rms(prec ) = 0.89919E+01
  weight for this iteration     100.00

 eigenvalues of (default mixing * dielectric matrix)
  average eigenvalue GAMMA=   0.2211
  0.2211  0.2211

 Free energy of the ion-electron system (eV)
  ---------------------------------------------------
  alpha Z        PSCENC =       940.28209813
  Ewald energy   TEWEN  =    758194.41586537
  -Hartree energ DENC   =   -795001.89974665
  -exchange      EXHF   =         0.00000000
  -V(xc)+E(xc)   XCENC  =      -366.53004583
  PAW double counting   =     35665.74991820   -34133.59153844
  entropy T*S    EENTRO =        -0.15975734
  eigenvalues    EBANDS =      -259.44906271
  atomic energy  EATOM  =     35266.91851613
  Solvation  Ediel_sol  =      -541.10035246
  ---------------------------------------------------
  free energy    TOTEN  =      -235.36410560 eV

  energy without entropy =     -235.20434826  energy(sigma->0) =     -235.28422693


--------------------------------------------------------------------------------------------------------




--------------------------------------- Iteration      1(   8)  ---------------------------------------


    POTLOK:  cpu time      5.6748: real time      5.6839
    SETDIJ:  cpu time      0.0679: real time      0.0679
    EDDIAG:  cpu time      0.2569: real time      0.2599
  RMM-DIIS:  cpu time      1.1356: real time      1.1357
    ORTHCH:  cpu time      0.0778: real time      0.0778
       DOS:  cpu time      0.0022: real time      0.0022
    CHARGE:  cpu time      0.0948: real time      0.0948
    MIXING:  cpu time      0.0033: real time      0.0033
    --------------------------------------------
      LOOP:  cpu time      7.3134: real time      7.3256

 eigenvalue-minimisations  :  8365
 total energy-change (2. order) : 0.1117471E+02  (-0.2314966E+01)
 number of electron     374.5000529 magnetization 
 augmentation part      166.5269325 magnetization 

 Broyden mixing:
  rms(total) = 0.73932E+01    rms(broyden)= 0.73932E+01
  rms(prec ) = 0.10797E+02
  weight for this iteration     100.00

 eigenvalues of (default mixing * dielectric matrix)
  average eigenvalue GAMMA=   0.1792
  0.2296  0.2296  0.0783

 Free energy of the ion-electron system (eV)
  ---------------------------------------------------
  alpha Z        PSCENC =       940.28209813
  Ewald energy   TEWEN  =    758194.41586537
  -Hartree energ DENC   =   -794738.57519528
  -exchange      EXHF   =         0.00000000
  -V(xc)+E(xc)   XCENC  =      -367.13092483
  PAW double counting   =     35377.67639945   -33840.86097966
  entropy T*S    EENTRO =        -0.10348810
  eigenvalues    EBANDS =      -952.94310271
  atomic energy  EATOM  =     35266.91851613
  Solvation  Ediel_sol  =      -103.86858081
  ---------------------------------------------------
  free energy    TOTEN  =      -224.18939232 eV

  energy without entropy =     -224.08590421  energy(sigma->0) =     -224.13764826


--------------------------------------------------------------------------------------------------------




--------------------------------------- Iteration      1(   9)  ---------------------------------------


    POTLOK:  cpu time      5.5828: real time      5.5864
    SETDIJ:  cpu time      0.0024: real time      0.0024
    EDDIAG:  cpu time      0.2507: real time      0.2508
  RMM-DIIS:  cpu time      1.1916: real time      1.1918
    ORTHCH:  cpu time      0.0749: real time      0.0749
       DOS:  cpu time      0.0021: real time      0.0021
    CHARGE:  cpu time      0.0929: real time      0.0929
    MIXING:  cpu time      0.0036: real time      0.0036
    --------------------------------------------
      LOOP:  cpu time      7.2011: real time      7.2049

 eigenvalue-minimisations  :  8767
 total energy-change (2. order) : 0.1030701E+02  (-0.1219453E+01)
 number of electron     374.5000517 magnetization 
 augmentation part      165.8338468 magnetization 

 Broyden mixing:
  rms(total) = 0.68333E+01    rms(broyden)= 0.68332E+01
  rms(prec ) = 0.10405E+02
  weight for this iteration     100.00

 eigenvalues of (default mixing * dielectric matrix)
  average eigenvalue GAMMA=   0.1499
  0.2333  0.2333  0.0665  0.0665

 Free energy of the ion-electron system (eV)
  ---------------------------------------------------
  alpha Z        PSCENC =       940.28209813
  Ewald energy   TEWEN  =    758194.41586537
  -Hartree energ DENC   =   -794693.78453080
  -exchange      EXHF   =         0.00000000
  -V(xc)+E(xc)   XCENC  =      -367.11770370
  PAW double counting   =     35320.88888124   -33783.02673561
  entropy T*S    EENTRO =        -0.12936363
  eigenvalues    EBANDS =     -1060.42490613
  atomic energy  EATOM  =     35266.91851613
  Solvation  Ediel_sol  =       -31.90450100
  ---------------------------------------------------
  free energy    TOTEN  =      -213.88238002 eV

  energy without entropy =     -213.75301638  energy(sigma->0) =     -213.81769820


--------------------------------------------------------------------------------------------------------




--------------------------------------- Iteration      1(  10)  ---------------------------------------


    POTLOK:  cpu time      5.4383: real time      5.4460
    SETDIJ:  cpu time      0.0171: real time      0.0171
    EDDIAG:  cpu time      0.2514: real time      0.2515
  RMM-DIIS:  cpu time      1.1900: real time      1.1901
    ORTHCH:  cpu time      0.0746: real time      0.0746
       DOS:  cpu time      0.0022: real time      0.0022
    CHARGE:  cpu time      0.0914: real time      0.0914
    MIXING:  cpu time      0.0038: real time      0.0038
    --------------------------------------------
      LOOP:  cpu time      7.0689: real time      7.0768

 eigenvalue-minimisations  :  8918
 total energy-change (2. order) :-0.4770607E+01  (-0.6109169E+00)
 number of electron     374.5000517 magnetization 
 augmentation part      165.4873711 magnetization 

 Broyden mixing:
  rms(total) = 0.69501E+01    rms(broyden)= 0.69501E+01
  rms(prec ) = 0.10591E+02
  weight for this iteration     100.00

 eigenvalues of (default mixing * dielectric matrix)
  average eigenvalue GAMMA=   0.3793
  0.6011  0.6011  0.4212  0.1926  0.0802

 Free energy of the ion-electron system (eV)
  ---------------------------------------------------
  alpha Z        PSCENC =       940.28209813
  Ewald energy   TEWEN  =    758194.41586537
  -Hartree energ DENC   =   -794723.97637740
  -exchange      EXHF   =         0.00000000
  -V(xc)+E(xc)   XCENC  =      -367.09378112
  PAW double counting   =     35359.65235618   -33822.39421188
  entropy T*S    EENTRO =        -0.12583273
  eigenvalues    EBANDS =      -997.62102856
  atomic energy  EATOM  =     35266.91851613
  Solvation  Ediel_sol  =       -68.71059148
  ---------------------------------------------------
  free energy    TOTEN  =      -218.65298737 eV

  energy without entropy =     -218.52715464  energy(sigma->0) =     -218.59007100


--------------------------------------------------------------------------------------------------------




--------------------------------------- Iteration      1(  11)  ---------------------------------------


    POTLOK:  cpu time      5.8311: real time      5.8373
    SETDIJ:  cpu time      0.0916: real time      0.0916
    EDDIAG:  cpu time      0.2572: real time      0.2572
  RMM-DIIS:  cpu time      1.4648: real time      1.4651
    ORTHCH:  cpu time      0.0730: real time      0.0730
       DOS:  cpu time      0.0020: real time      0.0020
    CHARGE:  cpu time      0.0930: real time      0.0930
    MIXING:  cpu time      0.0032: real time      0.0032
    --------------------------------------------
      LOOP:  cpu time      7.8160: real time      7.8225

 eigenvalue-minimisations  : 10932
 total energy-change (2. order) : 0.6661879E+02  (-0.4840282E+01)
 number of electron     374.5000545 magnetization 
 augmentation part      170.7559347 magnetization 

 Broyden mixing:
  rms(total) = 0.62279E+01    rms(broyden)= 0.62279E+01
  rms(prec ) = 0.79979E+01
  weight for this iteration     100.00

 eigenvalues of (default mixing * dielectric matrix)
  average eigenvalue GAMMA=   0.4739
  0.6860  0.6860  0.7672  0.4316  0.1921  0.0803

 Free energy of the ion-electron system (eV)
  ---------------------------------------------------
  alpha Z        PSCENC =       940.28209813
  Ewald energy   TEWEN  =    758194.41586537
  -Hartree energ DENC   =   -793862.79991304
  -exchange      EXHF   =         0.00000000
  -V(xc)+E(xc)   XCENC  =      -367.40847683
  PAW double counting   =     34564.08576184   -33013.22799840
  entropy T*S    EENTRO =        -0.18268252
  eigenvalues    EBANDS =     -2881.04450764
  atomic energy  EATOM  =     35266.91851613
  Solvation  Ediel_sol  =      1006.92713830
  ---------------------------------------------------
  free energy    TOTEN  =      -152.03419865 eV

  energy without entropy =     -151.85151613  energy(sigma->0) =     -151.94285739


--------------------------------------------------------------------------------------------------------




--------------------------------------- Iteration      1(  12)  ---------------------------------------


    POTLOK:  cpu time      5.8812: real time      5.8890
    SETDIJ:  cpu time      0.1802: real time      0.1802
    EDDIAG:  cpu time      0.2526: real time      0.2526
  RMM-DIIS:  cpu time      1.4789: real time      1.4791
    ORTHCH:  cpu time      0.0741: real time      0.0741
       DOS:  cpu time      0.0022: real time      0.0022
    CHARGE:  cpu time      0.0928: real time      0.0928
    MIXING:  cpu time      0.0032: real time      0.0032
    --------------------------------------------
      LOOP:  cpu time      7.9652: real time      7.9733

 eigenvalue-minimisations  : 10841
 total energy-change (2. order) :-0.8216174E+01  (-0.4494472E+01)
 number of electron     374.5000563 magnetization 
 augmentation part      174.7172823 magnetization 

 Broyden mixing:
  rms(total) = 0.63504E+01    rms(broyden)= 0.63504E+01
  rms(prec ) = 0.68695E+01
  weight for this iteration     100.00

 eigenvalues of (default mixing * dielectric matrix)
  average eigenvalue GAMMA=   0.4617
  0.6683  0.6683  0.8158  0.4055  0.4055  0.1879  0.0803

 Free energy of the ion-electron system (eV)
  ---------------------------------------------------
  alpha Z        PSCENC =       940.28209813
  Ewald energy   TEWEN  =    758194.41586537
  -Hartree energ DENC   =   -792496.46376926
  -exchange      EXHF   =         0.00000000
  -V(xc)+E(xc)   XCENC  =      -368.09500423
  PAW double counting   =     33739.97007578   -32179.89296035
  entropy T*S    EENTRO =        -0.15015457
  eigenvalues    EBANDS =     -6284.62826748
  atomic energy  EATOM  =     35266.91851613
  Solvation  Ediel_sol  =      3027.39322812
  ---------------------------------------------------
  free energy    TOTEN  =      -160.25037237 eV

  energy without entropy =     -160.10021780  energy(sigma->0) =     -160.17529508


--------------------------------------------------------------------------------------------------------




--------------------------------------- Iteration      1(  13)  ---------------------------------------


    POTLOK:  cpu time      5.6014: real time      5.6089
    SETDIJ:  cpu time      0.2168: real time      0.2168
    EDDIAG:  cpu time      0.2519: real time      0.2519
  RMM-DIIS:  cpu time      1.1331: real time      1.1332
    ORTHCH:  cpu time      0.0740: real time      0.0740
       DOS:  cpu time      0.0016: real time      0.0016
    CHARGE:  cpu time      0.0933: real time      0.0933
    MIXING:  cpu time      0.0035: real time      0.0035
    --------------------------------------------
      LOOP:  cpu time      7.3757: real time      7.3833

 eigenvalue-minimisations  :  8273
 total energy-change (2. order) :-0.1271271E+01  (-0.1486712E+00)
 number of electron     374.5000560 magnetization 
 augmentation part      174.2170695 magnetization 

 Broyden mixing:
  rms(total) = 0.66509E+01    rms(broyden)= 0.66509E+01
  rms(prec ) = 0.72109E+01
  weight for this iteration     100.00

 eigenvalues of (default mixing * dielectric matrix)
  average eigenvalue GAMMA=   0.5359
  0.6944  0.6944  0.9051  0.6865  0.6865  0.3491  0.1907  0.0803

 Free energy of the ion-electron system (eV)
  ---------------------------------------------------
  alpha Z        PSCENC =       940.28209813
  Ewald energy   TEWEN  =    758194.41586537
  -Hartree energ DENC   =   -792542.24431712
  -exchange      EXHF   =         0.00000000
  -V(xc)+E(xc)   XCENC  =      -367.85927580
  PAW double counting   =     33729.62112724   -32168.78198677
  entropy T*S    EENTRO =        -0.15622811
  eigenvalues    EBANDS =     -6197.75757686
  atomic energy  EATOM  =     35266.91851613
  Solvation  Ediel_sol  =      2984.04013462
  ---------------------------------------------------
  free energy    TOTEN  =      -161.52164318 eV

  energy without entropy =     -161.36541507  energy(sigma->0) =     -161.44352912


--------------------------------------------------------------------------------------------------------




--------------------------------------- Iteration      1(  14)  ---------------------------------------


    POTLOK:  cpu time      5.8660: real time      5.8742
    SETDIJ:  cpu time      0.1974: real time      0.1974
    EDDIAG:  cpu time      0.2501: real time      0.2501
  RMM-DIIS:  cpu time      1.2715: real time      1.2716
    ORTHCH:  cpu time      0.0749: real time      0.0749
       DOS:  cpu time      0.0016: real time      0.0016
    CHARGE:  cpu time      0.0927: real time      0.0927
    MIXING:  cpu time      0.0036: real time      0.0036
    --------------------------------------------
      LOOP:  cpu time      7.7576: real time      7.7660

 eigenvalue-minimisations  :  9178
 total energy-change (2. order) :-0.3239571E+01  (-0.2601692E+00)
 number of electron     374.5000559 magnetization 
 augmentation part      173.2801221 magnetization 

 Broyden mixing:
  rms(total) = 0.64446E+01    rms(broyden)= 0.64446E+01
  rms(prec ) = 0.70420E+01
  weight for this iteration     100.00

 eigenvalues of (default mixing * dielectric matrix)
  average eigenvalue GAMMA=   0.6425
  1.4464  0.7261  0.7261  0.8036  0.8036  0.6276  0.3785  0.1906  0.0803

 Free energy of the ion-electron system (eV)
  ---------------------------------------------------
  alpha Z        PSCENC =       940.28209813
  Ewald energy   TEWEN  =    758194.41586537
  -Hartree energ DENC   =   -792011.45499336
  -exchange      EXHF   =         0.00000000
  -V(xc)+E(xc)   XCENC  =      -368.47067190
  PAW double counting   =     34325.05225735   -32775.60980631
  entropy T*S    EENTRO =        -0.12035786
  eigenvalues    EBANDS =     -7129.93634275
  atomic energy  EATOM  =     35266.91851613
  Solvation  Ediel_sol  =      3394.16222073
  ---------------------------------------------------
  free energy    TOTEN  =      -164.76121446 eV

  energy without entropy =     -164.64085660  energy(sigma->0) =     -164.70103553


--------------------------------------------------------------------------------------------------------




--------------------------------------- Iteration      1(  15)  ---------------------------------------


    POTLOK:  cpu time      5.7759: real time      5.7849
    SETDIJ:  cpu time      0.2996: real time      0.2996
    EDDIAG:  cpu time      0.2649: real time      0.2649
  RMM-DIIS:  cpu time      1.3879: real time      1.3884
    ORTHCH:  cpu time      0.0740: real time      0.0740
       DOS:  cpu time      0.0026: real time      0.0026
    CHARGE:  cpu time      0.0921: real time      0.0921
    MIXING:  cpu time      0.0038: real time      0.0038
    --------------------------------------------
      LOOP:  cpu time      7.9007: real time      7.9103

 eigenvalue-minimisations  : 10302
 total energy-change (2. order) : 0.4787249E+00  (-0.6742853E+00)
 number of electron     374.5000573 magnetization 
 augmentation part      175.3310375 magnetization 

 Broyden mixing:
  rms(total) = 0.49707E+01    rms(broyden)= 0.49707E+01
  rms(prec ) = 0.53406E+01
  weight for this iteration     100.00

 eigenvalues of (default mixing * dielectric matrix)
  average eigenvalue GAMMA=   0.6511
  1.3035  1.1001  1.1001  0.7391  0.7391  0.0803  0.1906  0.4081  0.4081  0.4424

 Free energy of the ion-electron system (eV)
  ---------------------------------------------------
  alpha Z        PSCENC =       940.28209813
  Ewald energy   TEWEN  =    758194.41586537
  -Hartree energ DENC   =   -790660.03060339
  -exchange      EXHF   =         0.00000000
  -V(xc)+E(xc)   XCENC  =      -372.57035094
  PAW double counting   =     35132.15949831   -33606.89956805
  entropy T*S    EENTRO =        -0.18365834
  eigenvalues    EBANDS =     -9748.54329045
  atomic energy  EATOM  =     35266.91851613
  Solvation  Ediel_sol  =      4690.16900364
  ---------------------------------------------------
  free energy    TOTEN  =      -164.28248958 eV

  energy without entropy =     -164.09883124  energy(sigma->0) =     -164.19066041


--------------------------------------------------------------------------------------------------------




--------------------------------------- Iteration      1(  16)  ---------------------------------------


    POTLOK:  cpu time      5.5621: real time      5.5671
    SETDIJ:  cpu time      0.3894: real time      0.3894
    EDDIAG:  cpu time      0.2566: real time      0.2566
  RMM-DIIS:  cpu time      1.3400: real time      1.3403
    ORTHCH:  cpu time      0.0731: real time      0.0732
       DOS:  cpu time      0.0021: real time      0.0021
    CHARGE:  cpu time      0.0980: real time      0.0981
    MIXING:  cpu time      0.0040: real time      0.0040
    --------------------------------------------
      LOOP:  cpu time      7.7254: real time      7.7309

 eigenvalue-minimisations  :  9642
 total energy-change (2. order) : 0.2176220E+02  (-0.8502053E+00)
 number of electron     374.5000580 magnetization 
 augmentation part      178.9825123 magnetization 

 Broyden mixing:
  rms(total) = 0.34910E+01    rms(broyden)= 0.34910E+01
  rms(prec ) = 0.37372E+01
  weight for this iteration     100.00

 eigenvalues of (default mixing * dielectric matrix)
  average eigenvalue GAMMA=   0.6404
  1.4617  0.7407  0.7407  1.0350  1.0350  0.5441  0.5441  0.0803  0.1906  0.3363
  0.3363

 Free energy of the ion-electron system (eV)
  ---------------------------------------------------
  alpha Z        PSCENC =       940.28209813
  Ewald energy   TEWEN  =    758194.41586537
  -Hartree energ DENC   =   -790764.73498430
  -exchange      EXHF   =         0.00000000
  -V(xc)+E(xc)   XCENC  =      -373.81859710
  PAW double counting   =     35545.64786180   -34031.02595849
  entropy T*S    EENTRO =        -0.06992592
  eigenvalues    EBANDS =     -9208.64434671
  atomic energy  EATOM  =     35266.91851613
  Solvation  Ediel_sol  =      4288.50917949
  ---------------------------------------------------
  free energy    TOTEN  =      -142.52029161 eV

  energy without entropy =     -142.45036570  energy(sigma->0) =     -142.48532865


--------------------------------------------------------------------------------------------------------




--------------------------------------- Iteration      1(  17)  ---------------------------------------


    POTLOK:  cpu time      5.6592: real time      5.6677
    SETDIJ:  cpu time      0.2215: real time      0.2215
    EDDIAG:  cpu time      0.2602: real time      0.2602
  RMM-DIIS:  cpu time      1.0937: real time      1.0939
    ORTHCH:  cpu time      0.0743: real time      0.0743
       DOS:  cpu time      0.0015: real time      0.0015
    CHARGE:  cpu time      0.0917: real time      0.0917
    MIXING:  cpu time      0.0044: real time      0.0044
    --------------------------------------------
      LOOP:  cpu time      7.4066: real time      7.4153

 eigenvalue-minimisations  :  7912
 total energy-change (2. order) : 0.2565384E+01  (-0.5654097E-01)
 number of electron     374.5000579 magnetization 
 augmentation part      178.9954168 magnetization 

 Broyden mixing:
  rms(total) = 0.31171E+01    rms(broyden)= 0.31171E+01
  rms(prec ) = 0.33293E+01
  weight for this iteration     100.00

 eigenvalues of (default mixing * dielectric matrix)
  average eigenvalue GAMMA=   0.7158
  2.0059  0.7406  0.7406  1.0269  1.0269  0.7819  0.7819  0.0803  0.1906  0.4757
  0.3691  0.3691

 Free energy of the ion-electron system (eV)
  ---------------------------------------------------
  alpha Z        PSCENC =       940.28209813
  Ewald energy   TEWEN  =    758194.41586537
  -Hartree energ DENC   =   -790547.27191473
  -exchange      EXHF   =         0.00000000
  -V(xc)+E(xc)   XCENC  =      -373.77039778
  PAW double counting   =     35832.22208106   -34322.08769973
  entropy T*S    EENTRO =        -0.04159003
  eigenvalues    EBANDS =     -9582.14785976
  atomic energy  EATOM  =     35266.91851613
  Solvation  Ediel_sol  =      4451.52599330
  ---------------------------------------------------
  free energy    TOTEN  =      -139.95490804 eV

  energy without entropy =     -139.91331800  energy(sigma->0) =     -139.93411302


--------------------------------------------------------------------------------------------------------




--------------------------------------- Iteration      1(  18)  ---------------------------------------


    POTLOK:  cpu time      5.7832: real time      5.7926
    SETDIJ:  cpu time      0.2521: real time      0.2521
    EDDIAG:  cpu time      0.2479: real time      0.2479
  RMM-DIIS:  cpu time      1.1682: real time      1.1684
    ORTHCH:  cpu time      0.0736: real time      0.0736
       DOS:  cpu time      0.0017: real time      0.0017
    CHARGE:  cpu time      0.0935: real time      0.0935
    MIXING:  cpu time      0.0041: real time      0.0041
    --------------------------------------------
      LOOP:  cpu time      7.6243: real time      7.6337

 eigenvalue-minimisations  :  8437
 total energy-change (2. order) : 0.4613299E+01  (-0.8795100E-01)
 number of electron     374.5000577 magnetization 
 augmentation part      178.9281164 magnetization 

 Broyden mixing:
  rms(total) = 0.25906E+01    rms(broyden)= 0.25906E+01
  rms(prec ) = 0.27624E+01
  weight for this iteration     100.00

 eigenvalues of (default mixing * dielectric matrix)
  average eigenvalue GAMMA=   0.7977
  1.9914  1.5714  1.5714  0.7376  0.7376  0.8136  0.8136  0.5664  0.5664  0.0803
  0.1906  0.3647  0.3647

 Free energy of the ion-electron system (eV)
  ---------------------------------------------------
  alpha Z        PSCENC =       940.28209813
  Ewald energy   TEWEN  =    758194.41586537
  -Hartree energ DENC   =   -790313.69317016
  -exchange      EXHF   =         0.00000000
  -V(xc)+E(xc)   XCENC  =      -373.63215083
  PAW double counting   =     36262.15619575   -34757.58533464
  entropy T*S    EENTRO =        -0.04312816
  eigenvalues    EBANDS =     -9996.40898093
  atomic energy  EATOM  =     35266.91851613
  Solvation  Ediel_sol  =      4642.24848075
  ---------------------------------------------------
  free energy    TOTEN  =      -135.34160858 eV

  energy without entropy =     -135.29848042  energy(sigma->0) =     -135.32004450


--------------------------------------------------------------------------------------------------------




--------------------------------------- Iteration      1(  19)  ---------------------------------------


    POTLOK:  cpu time      6.0106: real time      6.0199
    SETDIJ:  cpu time      0.1509: real time      0.1509
    EDDIAG:  cpu time      0.2648: real time      0.2648
  RMM-DIIS:  cpu time      1.3660: real time      1.3661
    ORTHCH:  cpu time      0.0738: real time      0.0739
       DOS:  cpu time      0.0016: real time      0.0016
    CHARGE:  cpu time      0.0913: real time      0.0913
    MIXING:  cpu time      0.0046: real time      0.0046
    --------------------------------------------
      LOOP:  cpu time      7.9636: real time      7.9732

 eigenvalue-minimisations  :  9854
 total energy-change (2. order) : 0.1183619E+02  (-0.3542750E+00)
 number of electron     374.5000575 magnetization 
 augmentation part      178.9942120 magnetization 

 Broyden mixing:
  rms(total) = 0.16277E+01    rms(broyden)= 0.16277E+01
  rms(prec ) = 0.17598E+01
  weight for this iteration     100.00

 eigenvalues of (default mixing * dielectric matrix)
  average eigenvalue GAMMA=   0.7676
  2.0585  1.6247  1.6247  0.7373  0.7373  0.8045  0.8045  0.5481  0.5481  0.0803
  0.1906  0.3631  0.3631  0.2622

 Free energy of the ion-electron system (eV)
  ---------------------------------------------------
  alpha Z        PSCENC =       940.28209813
  Ewald energy   TEWEN  =    758194.41586537
  -Hartree energ DENC   =   -790348.96753381
  -exchange      EXHF   =         0.00000000
  -V(xc)+E(xc)   XCENC  =      -373.25076359
  PAW double counting   =     36963.78286250   -35467.74317675
  entropy T*S    EENTRO =        -0.04068728
  eigenvalues    EBANDS =     -9790.28795806
  atomic energy  EATOM  =     35266.91851613
  Solvation  Ediel_sol  =      4491.38536193
  ---------------------------------------------------
  free energy    TOTEN  =      -123.50541543 eV

  energy without entropy =     -123.46472815  energy(sigma->0) =     -123.48507179


--------------------------------------------------------------------------------------------------------




--------------------------------------- Iteration      1(  20)  ---------------------------------------


    POTLOK:  cpu time      5.8206: real time      5.8234
    SETDIJ:  cpu time      0.2123: real time      0.2124
    EDDIAG:  cpu time      0.2586: real time      0.2586
  RMM-DIIS:  cpu time      1.1457: real time      1.1459
    ORTHCH:  cpu time      0.0736: real time      0.0736
       DOS:  cpu time      0.0022: real time      0.0022
    CHARGE:  cpu time      0.0917: real time      0.0917
    MIXING:  cpu time      0.0044: real time      0.0044
    --------------------------------------------
      LOOP:  cpu time      7.6091: real time      7.6122

 eigenvalue-minimisations  :  8271
 total energy-change (2. order) : 0.4740425E+01  (-0.7388410E-01)
 number of electron     374.5000576 magnetization 
 augmentation part      179.1354532 magnetization 

 Broyden mixing:
  rms(total) = 0.12802E+01    rms(broyden)= 0.12802E+01
  rms(prec ) = 0.14244E+01
  weight for this iteration     100.00

 eigenvalues of (default mixing * dielectric matrix)
  average eigenvalue GAMMA=   0.7657
  2.0958  1.6062  1.6062  0.7367  0.7367  0.7842  0.7842  0.5087  0.5087  0.5583
  0.5583  0.0803  0.1906  0.3650  0.3650

 Free energy of the ion-electron system (eV)
  ---------------------------------------------------
  alpha Z        PSCENC =       940.28209813
  Ewald energy   TEWEN  =    758194.41586537
  -Hartree energ DENC   =   -790438.59576882
  -exchange      EXHF   =         0.00000000
  -V(xc)+E(xc)   XCENC  =      -373.35664430
  PAW double counting   =     37247.82465019   -35756.74985291
  entropy T*S    EENTRO =        -0.04569657
  eigenvalues    EBANDS =     -9604.56415189
  atomic energy  EATOM  =     35266.91851613
  Solvation  Ediel_sol  =      4405.10599413
  ---------------------------------------------------
  free energy    TOTEN  =      -118.76499055 eV

  energy without entropy =     -118.71929398  energy(sigma->0) =     -118.74214226


--------------------------------------------------------------------------------------------------------




--------------------------------------- Iteration      1(  21)  ---------------------------------------


    POTLOK:  cpu time      5.7073: real time      5.7130
    SETDIJ:  cpu time      0.1561: real time      0.1561
    EDDIAG:  cpu time      0.2590: real time      0.2590
  RMM-DIIS:  cpu time      1.1646: real time      1.1648
    ORTHCH:  cpu time      0.0712: real time      0.0712
       DOS:  cpu time      0.0049: real time      0.0049
    CHARGE:  cpu time      0.0923: real time      0.0923
    MIXING:  cpu time      0.0054: real time      0.0054
    --------------------------------------------
      LOOP:  cpu time      7.4608: real time      7.4668

 eigenvalue-minimisations  :  8531
 total energy-change (2. order) : 0.5411684E+01  (-0.8451008E-01)
 number of electron     374.5000577 magnetization 
 augmentation part      179.3305612 magnetization 

 Broyden mixing:
  rms(total) = 0.10020E+01    rms(broyden)= 0.10020E+01
  rms(prec ) = 0.11552E+01
  weight for this iteration     100.00

 eigenvalues of (default mixing * dielectric matrix)
  average eigenvalue GAMMA=   0.7791
  2.0987  1.6145  1.6145  0.7371  0.7371  0.7272  0.7272  0.7452  0.7452  0.6356
  0.5160  0.0803  0.1906  0.3650  0.3650  0.5668

 Free energy of the ion-electron system (eV)
  ---------------------------------------------------
  alpha Z        PSCENC =       940.28209813
  Ewald energy   TEWEN  =    758194.41586537
  -Hartree energ DENC   =   -790642.80324371
  -exchange      EXHF   =         0.00000000
  -V(xc)+E(xc)   XCENC  =      -373.46142782
  PAW double counting   =     37427.77862534   -35941.17031208
  entropy T*S    EENTRO =        -0.03752238
  eigenvalues    EBANDS =     -9067.50718575
  atomic energy  EATOM  =     35266.91851613
  Solvation  Ediel_sol  =      4082.23127995
  ---------------------------------------------------
  free energy    TOTEN  =      -113.35330682 eV

  energy without entropy =     -113.31578445  energy(sigma->0) =     -113.33454564


--------------------------------------------------------------------------------------------------------




--------------------------------------- Iteration      1(  22)  ---------------------------------------


    POTLOK:  cpu time      5.6808: real time      5.6843
    SETDIJ:  cpu time      0.2314: real time      0.2314
    EDDIAG:  cpu time      0.2623: real time      0.2623
  RMM-DIIS:  cpu time      1.1256: real time      1.1257
    ORTHCH:  cpu time      0.0738: real time      0.0738
       DOS:  cpu time      0.0015: real time      0.0015
    CHARGE:  cpu time      0.0949: real time      0.0949
    MIXING:  cpu time      0.0054: real time      0.0054
    --------------------------------------------
      LOOP:  cpu time      7.4756: real time      7.4793

 eigenvalue-minimisations  :  8150
 total energy-change (2. order) : 0.3193961E+01  (-0.4342278E-01)
 number of electron     374.5000577 magnetization 
 augmentation part      179.3044033 magnetization 

 Broyden mixing:
  rms(total) = 0.86057E+00    rms(broyden)= 0.86057E+00
  rms(prec ) = 0.10402E+01
  weight for this iteration     100.00

 eigenvalues of (default mixing * dielectric matrix)
  average eigenvalue GAMMA=   0.9878
  2.2616  2.2616  1.9614  1.6427  1.6427  0.7375  0.7375  0.8670  0.8670  0.7848
  0.7848  0.7394  0.0803  0.1906  0.5041  0.3650  0.3650

 Free energy of the ion-electron system (eV)
  ---------------------------------------------------
  alpha Z        PSCENC =       940.28209813
  Ewald energy   TEWEN  =    758194.41586537
  -Hartree energ DENC   =   -790817.26841150
  -exchange      EXHF   =         0.00000000
  -V(xc)+E(xc)   XCENC  =      -373.20986164
  PAW double counting   =     37503.14886274   -36017.99517866
  entropy T*S    EENTRO =        -0.03766228
  eigenvalues    EBANDS =     -8603.24628004
  atomic energy  EATOM  =     35266.91851613
  Solvation  Ediel_sol  =      3796.83270587
  ---------------------------------------------------
  free energy    TOTEN  =      -110.15934587 eV

  energy without entropy =     -110.12168359  energy(sigma->0) =     -110.14051473


--------------------------------------------------------------------------------------------------------




--------------------------------------- Iteration      1(  23)  ---------------------------------------


    POTLOK:  cpu time      5.8735: real time      5.8781
    SETDIJ:  cpu time      0.1479: real time      0.1479
    EDDIAG:  cpu time      0.2440: real time      0.2440
[...]
  437                dfftw_execute                         0.001491                    9   7
  438                map_backward                          0.000944                    2   7
  439                  map_gather                            0.000316                  1   8
  440                  m_alltoallv_z                         0.000532                  1   8
  441                  map_scatter                           0.000091                  1   8
  442                map_forward                           0.001166                    4   7
  443                  map_gather                            0.000413                  2   8
  444                  m_alltoallv_z                         0.000629                  2   8
  445                  map_scatter                           0.000117                  2   8
  446          m_sumb_d                              0.000020                          2   4
  447          pothar                                0.001915                          1   4
  448            m_sumb_d                              0.000648                        1   5
  449        brmix                                 0.018605                            1   3
  450          m_sumb_d                              0.000084                          6   4
  451          brpre                                 0.000028                          1   4
  452          setg0                                 0.000330                          1   4
  453          broyd                                 0.006718                          1   4
  454            m_sumb_d                              0.000942                       51   5
  455            brget                                 0.000799                      229   5
  456            brsav                                 0.000160                       49   5
  457          m_bcast_z                             0.010563                          1   4
  458          m_bcast_d                             0.000118                          1   4
  459        m_alltoall_d                          0.000206                            6   3
  460        augmentation_charge                   0.005753                            1   3
  461          m_alltoall_d                          0.000067                          2   4
  462          fft3d_mpi                             0.002148                          1   4
  463            fftbrc_mpi                            0.002068                        1   5
  464              fftbas_plan_mpi                       0.002067                      1   6
  465                dfftw_execute                         0.000502                    3   7
  466                map_backward                          0.001485                    2   7
  467                  map_gather                            0.000466                  1   8
  468                  m_alltoallv_z                         0.000785                  1   8
  469                  map_scatter                           0.000230                  1   8
  470        m_bcast_d                             0.112972                            2   3
  471      potlok                                4.091483                              1   2
  472        fft3d_mpi                             3.041821                         1045   3
  473          fftbrc_mpi                            2.883405                       1045   4
  474            fftbas_plan_mpi                       2.882833                     1045   5
  475              dfftw_execute                         0.780634                   3135   6
  476              map_forward                           0.933347                    950   6
  477                map_gather                            0.353560                  476   7
  478                m_alltoallv_z                         0.503499                  476   7
  479                map_scatter                           0.073736                  476   7
  480              map_backward                          1.113723                   1140   6
  481                map_gather                            0.391981                  570   7
  482                m_alltoallv_z                         0.578233                  570   7
  483                map_scatter                           0.140572                  570   7
  484        ggaall_grid                           0.016238                            1   3
  485        m_sumb_d                              0.044735                          350   3
  486        pothar                                0.001242                            1   3
  487          m_sumb_d                              0.000024                          1   4
  488        m_bcast_d                             0.001076                            1   3
  489      potlok_metagga                        0.000000                              1   2
  490      set_dd_magatom                        0.000001                              1   2
  491      set_dd_paw                            0.110591                              1   2
  492        set_rsgf_all                          0.000000                            1   3
  493        m_sumb_d                              0.110567                            8   3
  494      densta                                0.000883                              1   2
  495        m_sumb_d                              0.000746                           39   3
 
 Flat profile
 ============
 
             routine name                   CPU           calls
 ---------------------------------------------------------------
 m_alltoallv_z                         114.176663       96273
 dfftw_execute                          72.752815      288456
 potlok                                 63.694195          61
 map_gather                             54.847274       96273
 m_sumb_d                               30.301589       79895
 map_scatter                            17.428686       96273
 fft3d_mpi                              10.793663       96152
 m_alltoall_d                            8.999380       22889
 vhamil                                  6.721080        6189
 m_bcast_z                               6.693748        6792
 w1_copy                                 5.219102       13611
 fftbas_plan_mpi                         5.124766       96152
 total_time                              4.869489           1
 fftwav_mpi                              4.462499        9918
 force_and_stress                        3.764823           1
 crrexp_mul_work_add                     3.752924      154258
 w1_daxpy                                3.691906        8090
 rpromu_gemm                             3.385696       41446
 eccp                                    3.363011        7448
 crrexp_mul_wave                         3.349522      160480
 orth1                                   3.337538        2186
 gemm                                    3.331284       38352
 w1_dscal                                3.119643       11347
 wfinit                                  2.861057           1
 lincom                                  2.506795         124
 elmin                                   1.668262           1
 w1_gaxpy                                1.607278        8436
 redis_pw                                1.441192        2228
 pdssyex_zheevx                          1.434247          64
 map_forward                             1.359459       92174
 ggaall_grid                             0.996836          62
 set_charge                              0.925795          60
 ggemm                                   0.920569         591
 kinhamil                                0.720318        6189
 apply_precond                           0.686322       10358
 fftext_mpi                              0.584666        6189
 w1_gemv                                 0.530636       12336
 eddiag                                  0.503968          59
 racc0                                   0.473458         451
 rpro1                                   0.348276         311
 i2                                      0.299795        1128
 m_bcast_d                               0.286950        1027
 w1_dot                                  0.276966        1611
 map_backward                            0.266564      100130
 augmentation_charge                     0.254065          61
 soft_charge                             0.224454          60
 cnorma                                  0.212155        5656
 broyd                                   0.200892          60
 pw_charge                               0.188641        1443
 rpromu                                  0.158172        1219
 setdij_                                 0.149474          88
 rspher_all                              0.146190          14
 zhegv                                   0.145664        2434
 overl1                                  0.143497       10705
 setup_precond                           0.132464        1792
 choleski                                0.129735          60
 phaser                                  0.128331          77
 racc0mu                                 0.124571        1128
 eddrmm                                  0.121780          59
 lapack                                  0.106333         451
 eddav                                   0.096571           5
 orthch                                  0.093666          60
 eccp_nl                                 0.084949        5656
 brget                                   0.075736        8985
 pothar                                  0.075281          62
 brmix                                   0.058766          60
 fftbrc_mpi                              0.051423       80045
 i3                                      0.032825        1128
 setg0                                   0.025449          61
 overl                                   0.023935         881
 hamiltmu                                0.022993        1579
 newband                                 0.022913        1643
 depsum                                  0.018784          60
 inisym                                  0.018277           1
 raccmu_                                 0.016259        1579
 forhar                                  0.015369           2
 brsav                                   0.013949        2282
 w1_projall                              0.013557        1439
 densta                                  0.013008          65
 fftbas_mpi                              0.011260       16107
 redis_proj                              0.010543        1891
 forloc                                  0.007121           1
 stufak                                  0.006354           1
 i1                                      0.005616        1128
 hamilt_local                            0.003998        1652
 fft_gq                                  0.003695          60
 strkin                                  0.003130           1
 set_dd_paw                              0.003078          62
 strnlr                                  0.002917           1
 truncate_high_frequency_w1              0.002781        6329
 rpro_isp                                0.002573          13
 strelo                                  0.002552           1
 brpre                                   0.001928          60
 strehar                                 0.001657           1
 chggra                                  0.001534           1
 brgrid                                  0.000990           1
 fornlr                                  0.000958           1
 rsp                                     0.000904           1
 fewald                                  0.000549           1
 posmap                                  0.000485           2
 fordep                                  0.000139           1
 potlok_metagga                          0.000080          61
 set_rsgf_all                            0.000077          62
 vectorpot                               0.000058          61
 crpa_reader                             0.000030           1
 rcp                                     0.000028           1
 FERMAT_RAZOR                            0.000026           1
 shift_bands_between_low_high            0.000018          59
 set_dd_magatom                          0.000012          62
 proall                                  0.000005           1
 rotate_active_occupied_orbital          0.000001           1
 redis_pw_over_bands                     0.000000           1
 ---------------------------------------------------------------
  summed up times     461.2959251403809     
 
 Accumulative profile
 ====================
 
             routine name                   CPU           calls
 ---------------------------------------------------------------
 total_time                            461.295925           1
 elmin                                 435.893211           1
 potlok                                321.535786          61
 fft3d_mpi                             276.812572       96152
 fftbas_plan_mpi                       265.956226       96152
 fftbrc_mpi                            234.350533       80045
 m_alltoallv_z                         114.176663       96273
 map_backward                          102.553342      100130
 map_forward                            85.525304       92174
 dfftw_execute                          72.752815      288456
 eddrmm                                 68.702468          59
 map_gather                             54.847274       96273
 fftbas_mpi                             31.668376       16107
 m_sumb_d                               30.301589       79895
 hamiltmu                               26.627310        1579
 fftwav_mpi                             21.764571        9918
 map_scatter                            17.428686       96273
 i2                                     15.880847        1128
 kinhamil                               15.687079        6189
 fftext_mpi                             14.966761        6189
 eddiag                                 14.947116          59
 i3                                     12.093182        1128
 eddav                                  11.527513           5
 set_dd_paw                             11.399167          62
 wfinit                                 10.335484           1
 m_alltoall_d                            8.999380       22889
 raccmu_                                 8.434265        1579
 racc0mu                                 7.637238        1128
 w1_projall                              7.064544        1439
 rpromu                                  7.059536        1219
 vhamil                                  6.721080        6189
 m_bcast_z                               6.693748        6792
 newband                                 6.486358        1643
 redis_pw                                6.480184        2228
 force_and_stress                        5.644591           1
 set_charge                              5.374545          60
 w1_copy                                 5.219102       13611
 orthch                                  4.429683          60
 hamilt_local                            4.242105        1652
 eccp                                    3.943677        7448
 crrexp_mul_work_add                     3.752924      154258
 w1_daxpy                                3.691906        8090
 soft_charge                             3.550613          60
 rpromu_gemm                             3.385696       41446
 crrexp_mul_wave                         3.349522      160480
 orth1                                   3.337538        2186
 gemm                                    3.331284       38352
 w1_dscal                                3.119643       11347
 redis_proj                              2.552173        1891
 lincom                                  2.506795         124
 w1_gaxpy                                1.607278        8436
 pdssyex_zheevx                          1.434273          64
 rpro_isp                                1.368507          13
 strnlr                                  1.075610           1
 ggaall_grid                             0.996836          62
 ggemm                                   0.920569         591
 w1_gemv                                 0.749721       12336
 cnorma                                  0.725554        5656
 racc0                                   0.708247         451
 i1                                      0.701703        1128
 apply_precond                           0.686322       10358
 brmix                                   0.523209          60
 augmentation_charge                     0.455642          61
 rpro1                                   0.444551         311
 fornlr                                  0.338953           1
 broyd                                   0.324569          60
 w1_dot                                  0.313486        1611
 m_bcast_d                               0.286950        1027
 setdij_                                 0.193197          88
 pw_charge                               0.188641        1443
 depsum                                  0.168586          60
 rspher_all                              0.146190          14
 zhegv                                   0.145664        2434
 overl1                                  0.143497       10705
 setup_precond                           0.140788        1792
 choleski                                0.129735          60
 phaser                                  0.128331          77
 fft_gq                                  0.126060          60
 proall                                  0.108623           1
 lapack                                  0.106333         451
 eccp_nl                                 0.084949        5656
 pothar                                  0.084562          62
 brget                                   0.075736        8985
 densta                                  0.068357          65
 setg0                                   0.025449          61
 overl                                   0.023935         881
 inisym                                  0.018762           1
 forhar                                  0.015393           2
 brsav                                   0.013949        2282
 fordep                                  0.011534           1
 fewald                                  0.008537           1
 chggra                                  0.007231           1
 forloc                                  0.007179           1
 stufak                                  0.006354           1
 strkin                                  0.004956           1
 strelo                                  0.002948           1
 truncate_high_frequency_w1              0.002781        6329
 brpre                                   0.001928          60
 strehar                                 0.001711           1
 brgrid                                  0.000990           1
 rsp                                     0.000904           1
 posmap                                  0.000485           2
 potlok_metagga                          0.000080          61
 set_rsgf_all                            0.000077          62
 vectorpot                               0.000058          61
 crpa_reader                             0.000030           1
 rcp                                     0.000028           1
 FERMAT_RAZOR                            0.000026           1
 shift_bands_between_low_high            0.000018          59
 set_dd_magatom                          0.000012          62
 rotate_active_occupied_orbital          0.000001           1
 redis_pw_over_bands                     0.000000           1
 ---------------------------------------------------------------
 
Profiling took   0.445910  0.202360  0.007976  0.007878 seconds
Profiling took   0.361759 seconds
