       N       E                     dE             d eps       ncg     rms          rms(c)
SOL:   1  -0.51709E-02    0.00000E+00   -0.51709E-02   161
DAV:   1     0.253363078205E+04    0.25336E+04   -0.18143E+05  6760   0.149E+03
DAV:   2    -0.111241001921E+02   -0.25448E+04   -0.24269E+04  7128   0.345E+02
DAV:   3    -0.100467976918E+03   -0.89344E+02   -0.87052E+02  7280   0.640E+01
DAV:   4    -0.101914056296E+03   -0.14461E+01   -0.14392E+01  7544   0.765E+00
DAV:   5    -0.101946340848E+03   -0.32285E-01   -0.32267E-01  7704   0.113E+00    0.298E+01
SOL:   2  -0.31004E+01    0.00000E+00   -0.31004E+01   144
RMM:   6    -0.239492538651E+03   -0.13755E+03   -0.98551E+01  8493   0.163E+01    0.564E+01
SOL:   3  -0.31358E+01    0.00000E+00   -0.31358E+01   137
RMM:   7    -0.235364105746E+03    0.41284E+01   -0.34942E+01  9573   0.496E+00    0.539E+01
SOL:   4  -0.36445E+01    0.00000E+00   -0.36445E+01   151
RMM:   8    -0.224189392389E+03    0.11175E+02   -0.23150E+01  8365   0.479E+00    0.739E+01
SOL:   5  -0.37361E+01    0.00000E+00   -0.37361E+01   147
RMM:   9    -0.213882380255E+03    0.10307E+02   -0.12195E+01  8767   0.206E+00    0.683E+01
SOL:   6  -0.36831E+01    0.00000E+00   -0.36831E+01   144
RMM:  10    -0.218652987954E+03   -0.47706E+01   -0.61092E+00  8918   0.108E+00    0.695E+01
SOL:   7  -0.53927E+01    0.00000E+00   -0.53927E+01   156
RMM:  11    -0.152034200099E+03    0.66619E+02   -0.48403E+01 10932   0.616E+00    0.623E+01
SOL:   8  -0.89096E+01    0.00000E+00   -0.89096E+01   159
RMM:  12    -0.160250371494E+03   -0.82162E+01   -0.44945E+01 10841   0.777E+00    0.635E+01
SOL:   9  -0.88900E+01    0.00000E+00   -0.88900E+01   150
RMM:  13    -0.161521641426E+03   -0.12713E+01   -0.14867E+00  8273   0.114E+00    0.665E+01
SOL:  10  -0.92482E+01    0.00000E+00   -0.92482E+01   157
RMM:  14    -0.164761217964E+03   -0.32396E+01   -0.26017E+00  9178   0.214E+00    0.644E+01
SOL:  11  -0.11190E+02    0.00000E+00   -0.11190E+02   157
RMM:  15    -0.164282564470E+03    0.47865E+00   -0.67428E+00 10302   0.479E+00    0.497E+01
SOL:  12  -0.10832E+02    0.00000E+00   -0.10832E+02   152
RMM:  16    -0.142520346284E+03    0.21762E+02   -0.85020E+00  9642   0.407E+00    0.349E+01
SOL:  13  -0.11224E+02    0.00000E+00   -0.11224E+02   153
RMM:  17    -0.139954920712E+03    0.25654E+01   -0.56541E-01  7912   0.158E+00    0.312E+01
SOL:  14  -0.11617E+02    0.00000E+00   -0.11617E+02   156
RMM:  18    -0.135341617530E+03    0.46133E+01   -0.87951E-01  8437   0.175E+00    0.259E+01
SOL:  15  -0.11373E+02    0.00000E+00   -0.11373E+02   161
RMM:  19    -0.123505415149E+03    0.11836E+02   -0.35427E+00  9854   0.279E+00    0.163E+01
SOL:  16  -0.11141E+02    0.00000E+00   -0.11141E+02   156
RMM:  20    -0.118764985581E+03    0.47404E+01   -0.73884E-01  8271   0.134E+00    0.128E+01
SOL:  17  -0.10712E+02    0.00000E+00   -0.10712E+02   151
RMM:  21    -0.113353352569E+03    0.54116E+01   -0.84513E-01  8532   0.141E+00    0.100E+01
SOL:  18  -0.10343E+02    0.00000E+00   -0.10343E+02   152
RMM:  22    -0.110159288651E+03    0.31941E+01   -0.43416E-01  8150   0.990E-01    0.861E+00
SOL:  19  -0.95663E+01    0.00000E+00   -0.95663E+01   156
RMM:  23    -0.104853213354E+03    0.53061E+01   -0.11694E+00  9013   0.168E+00    0.664E+00
SOL:  20  -0.83659E+01    0.00000E+00   -0.83659E+01   158
RMM:  24    -0.984741997776E+02    0.63790E+01   -0.27176E+00  9906   0.260E+00    0.475E+00
SOL:  21  -0.82902E+01    0.00000E+00   -0.82902E+01   147
RMM:  25    -0.981321427103E+02    0.34206E+00   -0.31168E-02  7682   0.331E-01    0.460E+00
SOL:  22  -0.75599E+01    0.00000E+00   -0.75599E+01   154
RMM:  26    -0.951954945618E+02    0.29366E+01   -0.95678E-01 10133   0.160E+00    0.343E+00
SOL:  23  -0.74127E+01    0.00000E+00   -0.74127E+01   143
RMM:  27    -0.947736447813E+02    0.42185E+00   -0.23368E-02  7744   0.271E-01    0.312E+00
SOL:  24  -0.72818E+01    0.00000E+00   -0.72818E+01   144
RMM:  28    -0.942775228539E+02    0.49612E+00   -0.75954E-02  8296   0.463E-01    0.241E+00
SOL:  25  -0.72238E+01    0.00000E+00   -0.72238E+01   141
RMM:  29    -0.942874680234E+02   -0.99452E-02   -0.57862E-02  8009   0.452E-01    0.216E+00
SOL:  26  -0.70954E+01    0.00000E+00   -0.70954E+01   144
RMM:  30    -0.944697627464E+02   -0.18229E+00   -0.28824E-01  9742   0.105E+00    0.221E+00
SOL:  27  -0.67762E+01    0.00000E+00   -0.67762E+01   148
RMM:  31    -0.939638430240E+02    0.50592E+00   -0.57501E-02  8212   0.319E-01    0.186E+00
SOL:  28  -0.64780E+01    0.00000E+00   -0.64780E+01   147
RMM:  32    -0.934640458887E+02    0.49980E+00   -0.75798E-02  8518   0.393E-01    0.132E+00
SOL:  29  -0.64692E+01    0.00000E+00   -0.64692E+01   133
RMM:  33    -0.934650011187E+02   -0.95523E-03   -0.26122E-03  7564   0.872E-02    0.131E+00
SOL:  30  -0.62215E+01    0.00000E+00   -0.62215E+01   145
RMM:  34    -0.932614869435E+02    0.20351E+00   -0.10508E-01 10266   0.557E-01    0.120E+00
SOL:  31  -0.62176E+01    0.00000E+00   -0.62176E+01   143
RMM:  35    -0.933227006566E+02   -0.61214E-01   -0.11382E-02  7927   0.187E-01    0.115E+00
SOL:  32  -0.59538E+01    0.00000E+00   -0.59538E+01   144
RMM:  36    -0.931763873257E+02    0.14631E+00   -0.95782E-02 10266   0.530E-01    0.137E+00
SOL:  33  -0.58922E+01    0.00000E+00   -0.58922E+01   141
RMM:  37    -0.931342066049E+02    0.42181E-01   -0.25405E-03  7726   0.915E-02    0.126E+00
SOL:  34  -0.59338E+01    0.00000E+00   -0.59338E+01   147
RMM:  38    -0.932305469724E+02   -0.96340E-01   -0.23558E-02  9355   0.257E-01    0.116E+00
SOL:  35  -0.58956E+01    0.00000E+00   -0.58956E+01   134
RMM:  39    -0.931994724440E+02    0.31075E-01   -0.12018E-03  7623   0.600E-02    0.112E+00
SOL:  36  -0.57870E+01    0.00000E+00   -0.57870E+01   142
RMM:  40    -0.931444857850E+02    0.54987E-01   -0.13607E-02  9252   0.194E-01    0.123E+00
SOL:  37  -0.57534E+01    0.00000E+00   -0.57534E+01   138
RMM:  41    -0.931199000125E+02    0.24586E-01   -0.20010E-03  7714   0.920E-02    0.111E+00
SOL:  38  -0.57500E+01    0.00000E+00   -0.57500E+01   132
RMM:  42    -0.931146271440E+02    0.52729E-02   -0.95774E-04  7583   0.574E-02    0.105E+00
SOL:  39  -0.57563E+01    0.00000E+00   -0.57563E+01   128
RMM:  43    -0.931194202357E+02   -0.47931E-02   -0.88480E-05  7342   0.156E-02    0.105E+00
SOL:  40  -0.57256E+01    0.00000E+00   -0.57256E+01   135
RMM:  44    -0.930980467596E+02    0.21373E-01   -0.39255E-04  8095   0.299E-02    0.102E+00
SOL:  41  -0.56018E+01    0.00000E+00   -0.56018E+01   142
RMM:  45    -0.930071280933E+02    0.90919E-01   -0.99704E-03 11384   0.163E-01    0.805E-01
SOL:  42  -0.55988E+01    0.00000E+00   -0.55988E+01   129
RMM:  46    -0.930055974280E+02    0.15307E-02   -0.28107E-05  7756   0.906E-03    0.801E-01
SOL:  43  -0.55973E+01    0.00000E+00   -0.55973E+01   135
RMM:  47    -0.930042019078E+02    0.13955E-02   -0.89675E-05  7826   0.192E-02    0.782E-01
SOL:  44  -0.55404E+01    0.00000E+00   -0.55404E+01   149
RMM:  48    -0.929199055298E+02    0.84296E-01   -0.47795E-02 13314   0.392E-01    0.298E-01
SOL:  45  -0.55809E+01    0.00000E+00   -0.55809E+01   144
RMM:  49    -0.929137444537E+02    0.61611E-02   -0.27539E-03 11411   0.887E-02    0.210E-01
SOL:  46  -0.56128E+01    0.00000E+00   -0.56128E+01   137
RMM:  50    -0.929098219255E+02    0.39225E-02   -0.16309E-03 11099   0.721E-02    0.141E-01
SOL:  47  -0.56531E+01    0.00000E+00   -0.56531E+01   142
RMM:  51    -0.929099207886E+02   -0.98863E-04   -0.37259E-03 11762   0.843E-02    0.298E-02
SOL:  48  -0.56645E+01    0.00000E+00   -0.56645E+01   135
RMM:  52    -0.929108878323E+02   -0.96704E-03   -0.82764E-05  7874   0.138E-02    0.272E-02
SOL:  49  -0.56567E+01    0.00000E+00   -0.56567E+01   134
RMM:  53    -0.929111725106E+02   -0.28468E-03   -0.47647E-05  7736   0.135E-02    0.384E-02
SOL:  50  -0.56584E+01    0.00000E+00   -0.56584E+01   127
RMM:  54    -0.929114872895E+02   -0.31478E-03   -0.69394E-05  7814   0.185E-02    0.970E-03
SOL:  51  -0.56589E+01    0.00000E+00   -0.56589E+01   127
RMM:  55    -0.929116000055E+02   -0.11272E-03   -0.83186E-06  7584   0.467E-03    0.937E-03
SOL:  52  -0.56634E+01    0.00000E+00   -0.56634E+01   130
RMM:  56    -0.929116931430E+02   -0.93137E-04   -0.10153E-05  7660   0.621E-03    0.434E-03
SOL:  53  -0.56636E+01    0.00000E+00   -0.56636E+01   122
RMM:  57    -0.929117224761E+02   -0.29333E-04   -0.12200E-06  6818   0.187E-03    0.401E-03
SOL:  54  -0.56632E+01    0.00000E+00   -0.56632E+01   121
RMM:  58    -0.929117321169E+02   -0.96408E-05   -0.60667E-07  5913   0.111E-03    0.205E-03
SOL:  55  -0.56632E+01    0.00000E+00   -0.56632E+01   116
RMM:  59    -0.929117367499E+02   -0.46330E-05   -0.18361E-07  4828   0.628E-04    0.130E-03
SOL:  56  -0.56631E+01    0.00000E+00   -0.56631E+01   116
RMM:  60    -0.929117387044E+02   -0.19545E-05   -0.10858E-07  4636   0.492E-04    0.852E-04
SOL:  57  -0.56632E+01    0.00000E+00   -0.56632E+01   109
RMM:  61    -0.929117391253E+02   -0.42084E-06   -0.53066E-08  4465   0.436E-04    0.459E-04
SOL:  58  -0.56631E+01    0.00000E+00   -0.56631E+01   112
RMM:  62    -0.929117393162E+02   -0.19092E-06   -0.15220E-08  3826   0.267E-04    0.219E-04
SOL:  59  -0.56631E+01    0.00000E+00   -0.56631E+01   110
RMM:  63    -0.929117394042E+02   -0.88010E-07   -0.59491E-09  3177   0.205E-04
SOL:  60  -0.56626E+01    0.00000E+00   -0.56626E+01   114
   1 F= -.10733931E+03 E0= -.10731505E+03  d E =-.485086E-01
