 vasp.6.4.1 05Apr23 (build Dec  5 2025 17:15:50) complex                         
 executed on    LinuxNV_CrayMPICH date 2025.12.05  18:41:17
 running   16 mpi-ranks, with    1 threads/rank, on    4 nodes
 distrk:  each k-point on    8 cores,    2 groups
 distr:  one band on NCORE=   1 cores,    8 groups
 OpenACC runtime initialized ...   16 GPUs detected


--------------------------------------------------------------------------------------------------------


 INCAR:
   SYSTEM = 'relax'
   NWRITE = 2
   ISTART = 0
   ICHARG = 2
   LWAVE = .FALSE.
   LCHARG = .TRUE.
   LREAL = AUTO
   LORBIT = 0
   ISYM = 2
   ALGO = Fast
   AMIN = 0.01
   ENCUT = 500
   PREC = Normal
   ISMEAR = 0
   SIGMA = 0.1
   ISPIN = 1
   NELM = 500
   EDIFF = 1E-7
   GGA = PE
   LASPH = .TRUE.
   LSORBIT = .FALSE.
   MAGMOM = 102*0.0
   IVDW = 20
   LDIPOL = .FALSE.
   IDIPOL = -1
   IBRION = -1
   EDIFFG = 1E-3
   NSW = 0
   ISIF = 2
   NFREE = 1
   POTIM = 0.5
   KPAR = 2
   NPAR = 8
   NCORE = 1
   NSIM = 4
   LSOL = .TRUE.
   EB_K = 78.4
   TAU = 0.0
   LRHOION = .FALSE.
   LAMBDA_D_K = 3.0
   SIGMA_K = 0.4
   NELECT = 374.5

 POTCAR:    PAW_PBE Ag 02Apr2005                  
 POTCAR:    PAW_PBE Ag 02Apr2005                  
   SHA256 =  6550cfa3543261e132c169e1b98a529204624d72be14e2da2e0242bcb74a174d Ag/POTCAR             
   COPYR  = (c) Copyright 02Apr2005 Georg Kresse                                                    
   COPYR  = This file is part of the software VASP. Any use, copying, and all other rights are regul
   COPYR  = If you do not have a valid VASP license, you may not use, copy or distribute this file. 
   VRHFIN =Ag : s1 d10                                                                              
   LEXCH  = PE                                                                                      
   EATOM  =  1037.2675 eV,   76.2370 Ry                                                             
                                                                                                    
   TITEL  = PAW_PBE Ag 02Apr2005                                                                    
   LULTRA =        F    use ultrasoft PP ?                                                          
   IUNSCR =        1    unscreen: 0-lin 1-nonlin 2-no                                               
   RPACOR =    2.000    partial core radius                                                         
   POMASS =  107.868; ZVAL   =   11.000    mass and valenz                                          
   RCORE  =    2.500    outmost cutoff radius                                                       
   RWIGS  =    2.840; RWIGS  =    1.503    wigner-seitz radius (au A)                               
   ENMAX  =  249.844; ENMIN  =  187.383 eV                                                          
   ICORE  =        3    local potential                                                             
   LCOR   =        T    correct aug charges                                                         
   LPAW   =        T    paw PP                                                                      
   EAUG   =  412.496                                                                                
   DEXC   =    0.000                                                                                
   RMAX   =    2.560    core radius for proj-oper                                                   
   RAUG   =    1.300    factor for augmentation sphere                                              
   RDEP   =    2.576    radius for radial grids                                                     
   RDEPT  =    2.072    core radius for aug-charge                                                  
                                                                                                    
   Atomic configuration                                                                             
   12 entries                                                                                       
     n  l   j            E        occ.                                                              
     1  0  0.50    -25324.9161   2.0000                                                             
     2  0  0.50     -3728.5341   2.0000                                                             
     2  1  1.50     -3344.0404   6.0000                                                             
     3  0  0.50      -683.5581   2.0000                                                             
     3  1  1.50      -557.3225   6.0000                                                             
     3  2  2.50      -358.3853  10.0000                                                             
     4  0  0.50       -95.0341   2.0000                                                             
     4  1  1.50       -58.5511   6.0000                                                             
     4  2  2.50        -7.4440  10.0000                                                             
     5  0  0.50        -4.4045   1.0000                                                             
     5  1  0.50        -1.3606   0.0000                                                             
     4  3  2.50        -1.3606   0.0000                                                             
   Description                                                                                      
     l       E           TYP  RCUT    TYP  RCUT                                                     
     2     -7.4439781     23  2.400                                                                 
     2     -8.8045607     23  2.400                                                                 
     0     -4.4044681     23  2.400                                                                 
     0      1.9520038     23  2.400                                                                 
     1     -1.3605826     23  2.500                                                                 
     1     27.2116520     23  2.500                                                                 
     3     -4.0817478     23  2.400                                                                 
  local pseudopotential read in
  partial core-charges read in
  partial kinetic energy density read in
  atomic valenz-charges read in
  non local Contribution for L=            2  read in
    real space projection operators read in
  non local Contribution for L=            2  read in
    real space projection operators read in
  non local Contribution for L=            0  read in
    real space projection operators read in
  non local Contribution for L=            0  read in
    real space projection operators read in
  non local Contribution for L=            1  read in
    real space projection operators read in
  non local Contribution for L=            1  read in
    real space projection operators read in
    PAW grid and wavefunctions read in
 
   number of l-projection  operators is LMAX  =            6
   number of lm-projection operators is LMMAX =           18
 
 Optimization of the real space projectors (new method)

 maximal supplied QI-value         = 15.12
 optimisation between [QCUT,QGAM] = [ 11.34, 22.83] = [ 36.00,145.93] Ry 
 Optimized for a Real-space Cutoff    1.43 Angstroem

   l    n(q)    QCUT    max X(q) W(low)/X(q) W(high)/X(q)  e(spline) 
   2      9    11.338    53.897    0.16E-03    0.20E-03    0.28E-06
   2      9    11.338    52.416    0.16E-03    0.20E-03    0.29E-06
   0     10    11.338   122.045    0.31E-04    0.76E-04    0.15E-06
   0     10    11.338    73.629    0.30E-04    0.72E-04    0.15E-06
   1      9    11.338    15.255    0.20E-03    0.19E-04    0.17E-06
   1      9    11.338     9.562    0.16E-03    0.15E-04    0.14E-06
  PAW_PBE Ag 02Apr2005                  :
 energy of atom  1       EATOM=-1037.2675
 kinetic energy error for atom=    0.0052 (will be added to EATOM!!)
 
 
 POSCAR: Ag
  positions in cartesian coordinates
  velocities in cartesian coordinates
 exchange correlation table for  LEXCH =        8
   RHO(1)=    0.500       N(1)  =     2000
   RHO(2)=  100.500       N(2)  =     4000
 


--------------------------------------------------------------------------------------------------------


 ion  position               nearest neighbor table
   1  0.750  0.750  0.695-  28 2.88  33 2.88  28 2.88  33 2.88  32 2.88  16 2.88  16 2.88  32 2.88
                            18 2.89  18 2.89  18 2.89  18 2.89
   2  0.250  0.250  0.305-   6 2.88   8 2.88   6 2.88   8 2.88   3 2.88  34 2.88   3 2.88  34 2.88
                            15 2.89  15 2.89  15 2.89  15 2.89
   3  0.750  0.250  0.272-   2 2.88  15 2.88  15 2.88   2 2.88  34 2.89  34 2.89  34 2.89  34 2.89
                             5 2.89   4 2.89   4 2.89   5 2.89
   4  0.250  0.250  0.239-   5 2.89   5 2.89   5 2.89   5 2.89   3 2.89  34 2.89  34 2.89   3 2.89

   5  0.750  0.750  0.239-   4 2.89   4 2.89   4 2.89   4 2.89  34 2.89   3 2.89  34 2.89   3 2.89

   6  0.750  0.250  0.337-   9 2.88  25 2.88  25 2.88   9 2.88   2 2.88  15 2.88   2 2.88  15 2.88
                             8 2.89   8 2.89   8 2.89   8 2.89
   7  0.250  0.750  0.467-  14 2.89  13 2.89  10 2.89  20 2.89  30 2.89  14 2.89  14 2.89  13 2.89
                            10 2.89  20 2.89  30 2.89  14 2.89
   8  0.250  0.750  0.337-   9 2.88  25 2.88  25 2.88   9 2.88   2 2.88  15 2.88   2 2.88  15 2.88
                             6 2.89   6 2.89   6 2.89   6 2.89
   9  0.250  0.250  0.370-   6 2.88   8 2.88   6 2.88   8 2.88  25 2.89  12 2.89  11 2.89  25 2.89
                            25 2.89  11 2.89  12 2.89  25 2.89
  10  0.750  0.750  0.435-  13 2.89   7 2.89  14 2.89  11 2.89  12 2.89  13 2.89  13 2.89   7 2.89
                            14 2.89  12 2.89  11 2.89  13 2.89
  11  0.750  0.250  0.402-  12 2.89   9 2.89  25 2.89  13 2.89  10 2.89  12 2.89  12 2.89   9 2.89
                            25 2.89  10 2.89  13 2.89  12 2.89
  12  0.250  0.750  0.402-  11 2.89   9 2.89  25 2.89  13 2.89  10 2.89  11 2.89  11 2.89   9 2.89
                            25 2.89  10 2.89  13 2.89  11 2.89
  13  0.250  0.250  0.435-  10 2.89   7 2.89  14 2.89  12 2.89  11 2.89  10 2.89  10 2.89  14 2.89
                             7 2.89  12 2.89  11 2.89  10 2.89
  14  0.750  0.250  0.467-   7 2.89  10 2.89  13 2.89  20 2.89  30 2.89   7 2.89   7 2.89  10 2.89
                            13 2.89  20 2.89  30 2.89   7 2.89
  15  0.750  0.750  0.305-   6 2.88   8 2.88   6 2.88   8 2.88   3 2.88  34 2.88   3 2.88  34 2.88
                             2 2.89   2 2.89   2 2.89   2 2.89
  16  0.250  0.750  0.728-   1 2.88  18 2.88   1 2.88  18 2.88  32 2.89  32 2.89  32 2.89  32 2.89
                            31 2.89  29 2.89  31 2.89  29 2.89
  17  0.750  0.750  0.630-  28 2.88  33 2.88  28 2.88  33 2.88  26 2.89  23 2.89  22 2.89  26 2.89
                            26 2.89  23 2.89  22 2.89  26 2.89
  18  0.250  0.250  0.695-  28 2.88  33 2.88  28 2.88  33 2.88  32 2.88  16 2.88  16 2.88  32 2.88
                             1 2.89   1 2.89   1 2.89   1 2.89
  19  0.750  0.250  0.533-  27 2.89  24 2.89  21 2.89  20 2.89  30 2.89  27 2.89  27 2.89  21 2.89
                            24 2.89  20 2.89  30 2.89  27 2.89
  20  0.750  0.750  0.500-  30 2.89  14 2.89  19 2.89  27 2.89   7 2.89  30 2.89  30 2.89  14 2.89
                             7 2.89  27 2.89  19 2.89  30 2.89
  21  0.250  0.250  0.565-  24 2.89  19 2.89  27 2.89  22 2.89  23 2.89  24 2.89  24 2.89  27 2.89
                            19 2.89  22 2.89  23 2.89  24 2.89
  22  0.250  0.750  0.598-  23 2.89  17 2.89  26 2.89  24 2.89  21 2.89  23 2.89  23 2.89  17 2.89
                            26 2.89  24 2.89  21 2.89  23 2.89
  23  0.750  0.250  0.598-  22 2.89  17 2.89  26 2.89  24 2.89  21 2.89  22 2.89  22 2.89  17 2.89
                            26 2.89  24 2.89  21 2.89  22 2.89
  24  0.750  0.750  0.565-  21 2.89  19 2.89  27 2.89  23 2.89  22 2.89  21 2.89  21 2.89  19 2.89
                            27 2.89  22 2.89  23 2.89  21 2.89
  25  0.750  0.750  0.370-   6 2.88   8 2.88   6 2.88   8 2.88   9 2.89  11 2.89  12 2.89   9 2.89
                             9 2.89  11 2.89  12 2.89   9 2.89
  26  0.250  0.250  0.630-  28 2.88  33 2.88  28 2.88  33 2.88  17 2.89  22 2.89  23 2.89  17 2.89
                            17 2.89  23 2.89  22 2.89  17 2.89
  27  0.250  0.750  0.533-  19 2.89  21 2.89  24 2.89  20 2.89  30 2.89  19 2.89  19 2.89  24 2.89
                            21 2.89  20 2.89  30 2.89  19 2.89
  28  0.750  0.250  0.663-  17 2.88  26 2.88  17 2.88  26 2.88   1 2.88  18 2.88  18 2.88   1 2.88
                            33 2.89  33 2.89  33 2.89  33 2.89
  29  0.750  0.750  0.761-  31 2.89  31 2.89  31 2.89  31 2.89  32 2.89  16 2.89  32 2.89  16 2.89

  30  0.250  0.250  0.500-  20 2.89  14 2.89  19 2.89   7 2.89  27 2.89  20 2.89  20 2.89   7 2.89
                            19 2.89  27 2.89  14 2.89  20 2.89
  31  0.250  0.250  0.761-  29 2.89  29 2.89  29 2.89  29 2.89  16 2.89  32 2.89  32 2.89  16 2.89

  32  0.750  0.250  0.728-   1 2.88  18 2.88   1 2.88  18 2.88  16 2.89  16 2.89  16 2.89  16 2.89
                            31 2.89  29 2.89  29 2.89  31 2.89
  33  0.250  0.750  0.663-  17 2.88  26 2.88  17 2.88  26 2.88   1 2.88  18 2.88  18 2.88   1 2.88
                            28 2.89  28 2.89  28 2.89  28 2.89
  34  0.250  0.750  0.272-   2 2.88  15 2.88  15 2.88   2 2.88   3 2.89   3 2.89   3 2.89   3 2.89
                             5 2.89   4 2.89   5 2.89   4 2.89
 
  LATTYP: Found a simple tetragonal cell.
 ALAT       =     4.0859999657
 C/A-ratio  =    15.3291746124
  
  Lattice vectors:
  
 A1 = (   4.0859999657,   0.0000000000,   0.0000000000)
 A2 = (   0.0000000000,   4.0859999657,   0.0000000000)
 A3 = (   0.0000000000,   0.0000000000,  62.6350069404)


Analysis of symmetry for initial positions (statically):
=====================================================================
 Subroutine PRICEL returns following result:
 
  LATTYP: Found a simple tetragonal cell.
 ALAT       =     2.8892382837
 C/A-ratio  =    21.6787266368
  
  Lattice vectors:
  
 A1 = (   2.0429999831,  -2.0429999826,   0.0000000000)
 A2 = (   2.0429999831,   2.0429999831,   0.0000000000)
 A3 = (   0.0000000000,   0.0000000000,  62.6350069404)
 
   2 primitive cells build up your supercell.
 

 Routine SETGRP: Setting up the symmetry group for a 
 simple tetragonal supercell.


 Subroutine GETGRP returns: Found 16 space group operations
 (whereof  8 operations were pure point group operations)
 out of a pool of 16 trial point group operations.


The static configuration has the point symmetry D_2h.
 The point group associated with its full space group is D_4h.


Analysis of symmetry for dynamics (positions and initial velocities):
=====================================================================
 Subroutine PRICEL returns following result:
 
  LATTYP: Found a simple tetragonal cell.
 ALAT       =     2.8892382837
 C/A-ratio  =    21.6787266368
  
  Lattice vectors:
  
 A1 = (   2.0429999831,  -2.0429999826,   0.0000000000)
 A2 = (   2.0429999831,   2.0429999831,   0.0000000000)
 A3 = (   0.0000000000,   0.0000000000,  62.6350069404)
 
   2 primitive cells build up your supercell.
 

 Routine SETGRP: Setting up the symmetry group for a 
 simple tetragonal supercell.


 Subroutine GETGRP returns: Found 16 space group operations
 (whereof  8 operations were pure point group operations)
 out of a pool of 16 trial point group operations.


The dynamic configuration has the point symmetry D_2h.
 The point group associated with its full space group is D_4h.


Analysis of constrained symmetry for selective dynamics:
=====================================================================
 Subroutine PRICEL returns following result:
 
  LATTYP: Found a simple tetragonal cell.
 ALAT       =     2.8892382837
 C/A-ratio  =    21.6787266368
  
  Lattice vectors:
  
 A1 = (   2.0429999831,  -2.0429999826,   0.0000000000)
 A2 = (   2.0429999831,   2.0429999831,   0.0000000000)
 A3 = (   0.0000000000,   0.0000000000,  62.6350069404)
 
   2 primitive cells build up your supercell.
 

 Routine SETGRP: Setting up the symmetry group for a 
 simple tetragonal supercell.


 Subroutine GETGRP returns: Found 16 space group operations
 (whereof  8 operations were pure point group operations)
 out of a pool of 16 trial point group operations.


The constrained configuration has the point symmetry D_2h.
 The point group associated with its full space group is D_4h.


 Subroutine INISYM returns: Found 16 space group operations
 (whereof  8 operations are pure point group operations),
 and found     2 'primitive' translations


----------------------------------------------------------------------------------------

                                     Primitive cell                                     

  volume of cell :     522.8581

  direct lattice vectors                    reciprocal lattice vectors
     2.042999983 -2.042999983  0.000000000     0.244738132 -0.244738132  0.000000000
     2.042999983  2.042999983  0.000000000     0.244738132  0.244738132 -0.000000000
     0.000000000  0.000000000 62.635006940    -0.000000000  0.000000000  0.015965513

  length of vectors
     2.889238284  2.889238284 62.635006940     0.346111986  0.346111986  0.015965513

  position of ions in fractional coordinates (direct lattice)
     1.000000000  0.500000000  0.695365957
     1.000000000  0.500000000  0.304634043
     0.500000000  1.000000000  0.272114558
     1.000000000  0.500000000  0.239482691
     0.500000000  1.000000000  0.337085117
     0.500000000  1.000000000  0.467382458
     1.000000000  0.500000000  0.369529831
     1.000000000  0.500000000  0.434764916
     0.500000000  1.000000000  0.402147373
     0.500000000  1.000000000  0.727885442
     1.000000000  0.500000000  0.630470169
     0.500000000  1.000000000  0.532617542
     1.000000000  0.500000000  0.500000000
     1.000000000  0.500000000  0.565235084
     0.500000000  1.000000000  0.597852627
     0.500000000  1.000000000  0.662914883
     1.000000000  0.500000000  0.760517309

  ion indices of the primitive-cell ions
   primitive index   ion index
                 1           1
                 2          15
                 3           3
                 4           5
                 5           6
                 6           7
                 7          25
                 8          10
                 9          11
                10          16
                11          17
                12          19
                13          20
                14          24
                15          22
                16          28
                17          29

----------------------------------------------------------------------------------------

 
 
 KPOINTS: uniform k-point mesh                    

Automatic generation of k-mesh.
 Grid dimensions read from file:
 generate k-points for:    8    8    1

 Generating k-lattice:

  Cartesian coordinates                     Fractional coordinates (reciprocal lattice)
     0.030592267  0.000000000  0.000000000     0.125000000  0.000000000  0.000000000
     0.000000000  0.030592267  0.000000000     0.000000000  0.125000000  0.000000000
     0.000000000  0.000000000  0.015965513     0.000000000  0.000000000  1.000000000

  Length of vectors
     0.030592267  0.030592267  0.015965513

  Shift w.r.t. Gamma in fractional coordinates (k-lattice)
     0.000000000  0.000000000  0.000000000

 
 Subroutine IBZKPT returns following result:
 ===========================================
 
 Found     15 irreducible k-points:
 
 Following reciprocal coordinates:
            Coordinates               Weight
  0.000000  0.000000  0.000000      1.000000
  0.125000  0.000000  0.000000      4.000000
  0.250000  0.000000  0.000000      4.000000
  0.375000  0.000000  0.000000      4.000000
  0.500000  0.000000  0.000000      2.000000
  0.125000  0.125000  0.000000      4.000000
  0.250000  0.125000  0.000000      8.000000
  0.375000  0.125000  0.000000      8.000000
  0.500000  0.125000  0.000000      4.000000
  0.250000  0.250000  0.000000      4.000000
  0.375000  0.250000  0.000000      8.000000
  0.500000  0.250000  0.000000      4.000000
  0.375000  0.375000  0.000000      4.000000
  0.500000  0.375000  0.000000      4.000000
  0.500000  0.500000  0.000000      1.000000
 
 Following cartesian coordinates:
            Coordinates               Weight
  0.000000  0.000000  0.000000      1.000000
  0.030592  0.000000  0.000000      4.000000
  0.061185  0.000000  0.000000      4.000000
  0.091777  0.000000  0.000000      4.000000
  0.122369  0.000000  0.000000      2.000000
  0.030592  0.030592  0.000000      4.000000
  0.061185  0.030592  0.000000      8.000000
  0.091777  0.030592  0.000000      8.000000
  0.122369  0.030592  0.000000      4.000000
  0.061185  0.061185  0.000000      4.000000
  0.091777  0.061185  0.000000      8.000000
  0.122369  0.061185  0.000000      4.000000
  0.091777  0.091777  0.000000      4.000000
  0.122369  0.091777  0.000000      4.000000
  0.122369  0.122369  0.000000      1.000000
 


--------------------------------------------------------------------------------------------------------




 Dimension of arrays:
   k-points           NKPTS =     15   k-points in BZ     NKDIM =     15   number of bands    NBANDS=    224
   number of dos      NEDOS =    301   number of ions     NIONS =     34
   non local maximal  LDIM  =      6   non local SUM 2l+1 LMDIM =     18
   total plane-waves  NPLWV = 201600
   max r-space proj   IRMAX =   2418   max aug-charges    IRDMAX=   9677
   dimension x,y,z NGX =    24 NGY =   24 NGZ =  350
   dimension x,y,z NGXF=    48 NGYF=   48 NGZF=  700
   support grid    NGXF=    48 NGYF=   48 NGZF=  700
   ions per type =              34
   NGX,Y,Z   is equivalent  to a cutoff of   9.76,  9.76,  9.29 a.u.
   NGXF,Y,Z  is equivalent  to a cutoff of  19.53, 19.53, 18.58 a.u.

 SYSTEM =  'relax'                                 
 POSCAR =  Ag                                      

 Startparameter for this run:
   NWRITE =      2    write-flag & timer
   PREC   = normal    normal or accurate (medium, high low for compatibility)
   ISTART =      0    job   : 0-new  1-cont  2-samecut
   ICHARG =      2    charge: 1-file 2-atom 10-const
   ISPIN  =      1    spin polarized calculation?
   LNONCOLLINEAR =      F non collinear calculations
   LSORBIT =      F    spin-orbit coupling
   INIWAV =      1    electr: 0-lowe 1-rand  2-diag
   LASPH  =      T    aspherical Exc in radial PAW
 Electronic Relaxation 1
   ENCUT  =  500.0 eV  36.75 Ry    6.06 a.u.   7.45  7.45114.20*2*pi/ulx,y,z
   ENINI  =  500.0     initial cutoff
   ENAUG  =  412.5 eV  augmentation charge cutoff
   NELM   =    500;   NELMIN=  2; NELMDL= -5     # of ELM steps 
   EDIFF  = 0.1E-06   stopping-criterion for ELM
   LREAL  =      T    real-space projection
   NLSPLINE    = F    spline interpolate recip. space projectors
   LCOMPAT=      F    compatible to vasp.4.4
   GGA_COMPAT  = T    GGA compatible to vasp.4.4-vasp.4.6
   LMAXPAW     = -100 max onsite density
   LMAXMIX     =    2 max onsite mixed and CHGCAR
   VOSKOWN=      0    Vosko Wilk Nusair interpolation
   ROPT   =   -0.00050
 Ionic relaxation
   EDIFFG = 0.1E-02   stopping-criterion for IOM
   NSW    =      0    number of steps for IOM
   NBLOCK =      1;   KBLOCK =      1    inner block; outer block 
   IBRION =     -1    ionic relax: 0-MD 1-quasi-New 2-CG
   NFREE  =      1    steps in history (QN), initial steepest desc. (CG)
   ISIF   =      2    stress and relaxation
   IWAVPR =     10    prediction:  0-non 1-charg 2-wave 3-comb
   ISYM   =      2    0-nonsym 1-usesym 2-fastsym
   LCORR  =      T    Harris-Foulkes like correction to forces

   POTIM  = 0.5000    time-step for ionic-motion
   TEIN   =    0.0    initial temperature
   TEBEG  =    0.0;   TEEND  =   0.0 temperature during run
   SMASS  =  -3.00    Nose mass-parameter (am)
   estimated Nose-frequenzy (Omega)   =  0.10E-29 period in steps = 0.13E+47 mass=  -0.382E-27a.u.
   SCALEE = 1.0000    scale energy and forces
   NPACO  =    256;   APACO  = 10.0  distance and # of slots for P.C.
   PSTRESS=    0.0 pullay stress

  Mass of Ions in am
   POMASS = 107.87
  Ionic Valenz
   ZVAL   =  11.00
  Atomic Wigner-Seitz radii
   RWIGS  =  -1.00
  virtual crystal weights 
   VCA    =   1.00
   NELECT =     374.5000    total number of electrons
   NUPDOWN=      -1.0000    fix difference up-down

 DOS related values:
   EMIN   =  10.00;   EMAX   =-10.00  energy-range for DOS
   EFERMI =   0.00;   METHOD = LEGACY      
   ISMEAR =     0;   SIGMA  =   0.10  broadening in eV -4-tet -1-fermi 0-gaus

 Electronic relaxation 2 (details)
   IALGO  =     68    algorithm
   LDIAG  =      T    sub-space diagonalisation (order eigenvalues)
   LSUBROT=      F    optimize rotation matrix (better conditioning)
   TURBO    =      0    0=normal 1=particle mesh
   IRESTART =      0    0=no restart 2=restart with 2 vectors
   NREBOOT  =      0    no. of reboots
   NMIN     =      0    reboot dimension
   EREF     =   0.00    reference energy to select bands
   IMIX   =      4    mixing-type and parameters
     AMIX     =   0.40;   BMIX     =  1.00
     AMIX_MAG =   1.60;   BMIX_MAG =  1.00
     AMIN     =   0.01
     WC   =   100.;   INIMIX=   1;  MIXPRE=   1;  MAXMIX= -45

 Intra band minimization:
   WEIMIN = 0.0000     energy-eigenvalue tresh-hold
   EBREAK =  0.11E-09  absolut break condition
   DEPER  =   0.30     relativ break condition  

   TIME   =   0.40     timestep for ELM

  volume/ion in A,a.u.               =      30.76       207.55
  Fermi-wavevector in a.u.,A,eV,Ry     =   1.162575  2.196947 18.389358  1.351580
  Thomas-Fermi vector in A             =   2.299134
 
 Write flags
   LWAVE        =      F    write WAVECAR
   LDOWNSAMPLE  =      F    k-point downsampling of WAVECAR
   LCHARG       =      T    write CHGCAR
   LVTOT        =      F    write LOCPOT, total local potential
   LVHAR        =      F    write LOCPOT, Hartree potential only
   LELF         =      F    write electronic localiz. function (ELF)
   LORBIT       =      0    0 simple, 1 ext, 2 COOP (PROOUT), +10 PAW based schemes
   LKILLDENS    =      F    T: kill the job when having serious density problem, F: continue the job


 Dipole corrections
   LMONO  =      F    monopole corrections only (constant potential shift)
   LDIPOL =      F    correct potential (dipole corrections)
   IDIPOL =     -1    1-x, 2-y, 3-z, 4-all directions 
   EPSILON=  1.0000000 bulk dielectric constant

 Exchange correlation treatment:
   GGA     =    PE    GGA type
   LEXCH   =     8    internal setting for exchange type
   LIBXC   =     F    Libxc                    
   VOSKOWN =     0    Vosko Wilk Nusair interpolation
   LHFCALC =     F    Hartree Fock is set to
   LHFONE  =     F    Hartree Fock one center treatment
   AEXX    =    0.0000 exact exchange contribution

 Linear response parameters
   LEPSILON=     F    determine dielectric tensor
   LRPA    =     F    only Hartree local field effects (RPA)
   LNABLA  =     F    use nabla operator in PAW spheres
   LVEL    =     F    velocity operator in full k-point grid
   CSHIFT  =0.1000    complex shift for real part using Kramers Kronig
   OMEGAMAX=  -1.0    maximum frequency
   DEG_THRESHOLD= 0.2000000E-02 threshold for treating states as degnerate
   RTIME   =   -0.100 relaxation time in fs
  (WPLASMAI=    0.000 imaginary part of plasma frequency in eV, 0.658/RTIME)
   DFIELD  = 0.0000000 0.0000000 0.0000000 field for delta impulse in time
 
  Optional k-point grid parameters
   LKPOINTS_OPT  =     F    use optional k-point grid
   KPOINTS_OPT_MODE=     1    mode for optional k-point grid
 
 Orbital magnetization related:
   ORBITALMAG=     F  switch on orbital magnetization
   LCHIMAG   =     F  perturbation theory with respect to B field
   DQ        =  0.001000  dq finite difference perturbation B field
   LLRAUG    =     F  two centre corrections for induced B field
   LBONE     =     F  B-component reconstruction in AE one-centre
   LVGVCALC  =     T  calculate vGv susceptibility
   LVGVAPPL  =     F  apply vGv susceptibility instead of pGv for G=0

 Random number generation:
   RANDOM_GENERATOR = DEFAULT
   PCG_SEED         = not used
 Solvation model:
   LSOL    =     T         switch on solvation model
   EB_K    = 78.400000     relative permittivity of the bulk solvent
   SIGMA_K =  0.400000     width of the dielectric cavity
   NC_K    =  0.002500     cutoff charge density
   TAU     =  0.000000     cavity surface tension
   LAMBDA_D_K    =  3.000000     Debye length in Angstroms
   LRHOB     =     F     write boundcharge  density
   LRHOION     =     F     write ioniccharge density



--------------------------------------------------------------------------------------------------------


 Static calculation
 charge density and potential will be updated during run
 non-spin polarized calculation
 RMM-DIIS sequential band-by-band and
  variant of blocked Davidson during initial phase
 perform sub-space diagonalisation
    before iterative eigenvector-optimisation
 modified Broyden-mixing scheme, WC =      100.0
 initial mixing is a Kerker type mixing with AMIX =  0.4000 and BMIX =      1.0000
 Hartree-type preconditioning will be used
 using additional bands            36
 real space projection scheme for non local part
 use partial core corrections
 calculate Harris-corrections to forces 
   (improved forces if not selfconsistent)
 use gradient corrections 
 use of overlap-Matrix (Vanderbilt PP)
 Gauss-broadening in eV      SIGMA  =   0.10


--------------------------------------------------------------------------------------------------------


  energy-cutoff  :      500.00
  volume of cell :     1045.72
      direct lattice vectors                 reciprocal lattice vectors
     4.085999966  0.000000000  0.000000000     0.244738132  0.000000000  0.000000000
     0.000000000  4.085999966  0.000000000     0.000000000  0.244738132  0.000000000
     0.000000000  0.000000000 62.635006940     0.000000000  0.000000000  0.015965513

  length of vectors
     4.085999966  4.085999966 62.635006940     0.244738132  0.244738132  0.015965513


 
 k-points in units of 2pi/SCALE and weight: uniform k-point mesh                    
   0.00000000  0.00000000  0.00000000       0.016
   0.03059227  0.00000000  0.00000000       0.063
   0.06118453  0.00000000  0.00000000       0.063
   0.09177680  0.00000000  0.00000000       0.063
   0.12236907  0.00000000  0.00000000       0.031
   0.03059227  0.03059227  0.00000000       0.063
   0.06118453  0.03059227  0.00000000       0.125
   0.09177680  0.03059227  0.00000000       0.125
   0.12236907  0.03059227  0.00000000       0.063
   0.06118453  0.06118453  0.00000000       0.063
   0.09177680  0.06118453  0.00000000       0.125
   0.12236907  0.06118453  0.00000000       0.063
   0.09177680  0.09177680  0.00000000       0.063
   0.12236907  0.09177680  0.00000000       0.063
   0.12236907  0.12236907  0.00000000       0.016
 
 k-points in reciprocal lattice and weights: uniform k-point mesh                    
   0.00000000  0.00000000  0.00000000       0.016
   0.12500000  0.00000000  0.00000000       0.063
   0.25000000  0.00000000  0.00000000       0.063
   0.37500000  0.00000000  0.00000000       0.063
   0.50000000  0.00000000  0.00000000       0.031
   0.12500000  0.12500000  0.00000000       0.063
   0.25000000  0.12500000  0.00000000       0.125
   0.37500000  0.12500000  0.00000000       0.125
   0.50000000  0.12500000  0.00000000       0.063
   0.25000000  0.25000000  0.00000000       0.063
   0.37500000  0.25000000  0.00000000       0.125
   0.50000000  0.25000000  0.00000000       0.063
   0.37500000  0.37500000  0.00000000       0.063
   0.50000000  0.37500000  0.00000000       0.063
   0.50000000  0.50000000  0.00000000       0.016
 
 position of ions in fractional coordinates (direct lattice) 
   0.75000000  0.75000000  0.69536596
   0.25000000  0.25000000  0.30463404
   0.75000000  0.25000000  0.27211456
   0.25000000  0.25000000  0.23948269
   0.75000000  0.75000000  0.23948269
   0.75000000  0.25000000  0.33708512
   0.25000000  0.75000000  0.46738246
   0.25000000  0.75000000  0.33708512
   0.25000000  0.25000000  0.36952983
   0.75000000  0.75000000  0.43476492
   0.75000000  0.25000000  0.40214737
   0.25000000  0.75000000  0.40214737
   0.25000000  0.25000000  0.43476492
   0.75000000  0.25000000  0.46738246
   0.75000000  0.75000000  0.30463404
   0.25000000  0.75000000  0.72788544
   0.75000000  0.75000000  0.63047017
   0.25000000  0.25000000  0.69536596
   0.75000000  0.25000000  0.53261754
   0.75000000  0.75000000  0.50000000
   0.25000000  0.25000000  0.56523508
   0.25000000  0.75000000  0.59785263
   0.75000000  0.25000000  0.59785263
   0.75000000  0.75000000  0.56523508
   0.75000000  0.75000000  0.36952983
   0.25000000  0.25000000  0.63047017
   0.25000000  0.75000000  0.53261754
   0.75000000  0.25000000  0.66291488
   0.75000000  0.75000000  0.76051731
   0.25000000  0.25000000  0.50000000
   0.25000000  0.25000000  0.76051731
   0.75000000  0.25000000  0.72788544
   0.25000000  0.75000000  0.66291488
   0.25000000  0.75000000  0.27211456
 
 position of ions in cartesian coordinates  (Angst):
   3.06449997  3.06449997 43.55425156
   1.02149999  1.02149999 19.08075538
   3.06449997  1.02149999 17.04389725
   1.02149999  1.02149999 15.00000000
   3.06449997  3.06449997 15.00000000
   3.06449997  1.02149999 21.11332865
   1.02149999  3.06449997 29.27450349
   1.02149999  3.06449997 21.11332865
   1.02149999  1.02149999 23.14550354
   3.06449997  3.06449997 27.23150350
   3.06449997  1.02149999 25.18850352
   1.02149999  3.06449997 25.18850352
   1.02149999  1.02149999 27.23150350
   3.06449997  1.02149999 29.27450349
   3.06449997  3.06449997 19.08075538
   1.02149999  3.06449997 45.59110969
   3.06449997  3.06449997 39.48950340
   1.02149999  1.02149999 43.55425156
   3.06449997  1.02149999 33.36050345
   3.06449997  3.06449997 31.31750347
   1.02149999  1.02149999 35.40350344
   1.02149999  3.06449997 37.44650342
   3.06449997  1.02149999 37.44650342
   3.06449997  3.06449997 35.40350344
   3.06449997  3.06449997 23.14550354
   1.02149999  1.02149999 39.48950340
   1.02149999  3.06449997 33.36050345
   3.06449997  1.02149999 41.52167829
   3.06449997  3.06449997 47.63500694
   1.02149999  1.02149999 31.31750347
   1.02149999  1.02149999 47.63500694
   3.06449997  1.02149999 45.59110969
   1.02149999  3.06449997 41.52167829
   1.02149999  3.06449997 17.04389725
 


--------------------------------------------------------------------------------------------------------


 k-point   1 :   0.0000 0.0000 0.0000  plane waves:   26757
 k-point   2 :   0.1250 0.0000 0.0000  plane waves:   26727
 k-point   3 :   0.2500 0.0000 0.0000  plane waves:   26631
 k-point   4 :   0.3750 0.0000 0.0000  plane waves:   26521
 k-point   5 :   0.5000 0.0000 0.0000  plane waves:   26422
 k-point   6 :   0.1250 0.1250 0.0000  plane waves:   26661
 k-point   7 :   0.2500 0.1250 0.0000  plane waves:   26583
 k-point   8 :   0.3750 0.1250 0.0000  plane waves:   26506
 k-point   9 :   0.5000 0.1250 0.0000  plane waves:   26500
 k-point  10 :   0.2500 0.2500 0.0000  plane waves:   26533
 k-point  11 :   0.3750 0.2500 0.0000  plane waves:   26531
 k-point  12 :   0.5000 0.2500 0.0000  plane waves:   26472
 k-point  13 :   0.3750 0.3750 0.0000  plane waves:   26514
 k-point  14 :   0.5000 0.3750 0.0000  plane waves:   26452
 k-point  15 :   0.5000 0.5000 0.0000  plane waves:   26476

 maximum and minimum number of plane-waves per node :     26757    26422

 maximum number of plane-waves:     26757
 maximum index in each direction: 
   IXMAX=    7   IYMAX=    7   IZMAX=  114
   IXMIN=   -7   IYMIN=   -7   IZMIN= -114


 serial   3D FFT for wavefunctions
 parallel 3D FFT for charge:
    minimum data exchange during FFTs selected (reduces bandwidth)


 total amount of memory used by VASP MPI-rank0   253648. kBytes
=======================================================================

   base      :      30000. kBytes
   nonlr-proj:      13808. kBytes
   fftplans  :       7578. kBytes
   grid      :      17768. kBytes
   one-center:        528. kBytes
   wavefun   :     183966. kBytes
 
     INWAV:  cpu time      0.0002: real time      0.0007
 Broyden mixing: mesh for mixing (old mesh)
   NGX = 15   NGY = 15   NGZ =229
  (NGX  = 48   NGY  = 48   NGZ  =700)
  gives a total of  51525 points

 initial charge density was supplied:
 charge density of overlapping atoms calculated
 number of electron     374.0000000 magnetization 
 keeping initial charge density in first step


--------------------------------------------------------------------------------------------------------


 Maximum index for non-local projection operator          2316
 Maximum index for augmentation-charges          1142 (set IRDMAX)


--------------------------------------------------------------------------------------------------------


 First call to EWALD:  gamma=   0.175
 Maximum number of real-space cells 6x 6x 1
 Maximum number of reciprocal cells 1x 1x14

    FEWALD:  cpu time      0.0036: real time      0.0036


--------------------------------------- Ionic step        1  -------------------------------------------




--------------------------------------- Iteration      1(   1)  ---------------------------------------


    POTLOK:  cpu time      5.1368: real time      5.1642
    SETDIJ:  cpu time      0.2502: real time      0.2505
     EDDAV:  cpu time      1.8723: real time      1.9096
       DOS:  cpu time      0.0014: real time      0.0014
    --------------------------------------------
      LOOP:  cpu time      7.2607: real time      7.3256

 eigenvalue-minimisations  :  6760
 total energy-change (2. order) : 0.2533631E+04  (-0.1814297E+05)
 number of electron     374.0000000 magnetization 
 augmentation part      374.0000000 magnetization 

 Free energy of the ion-electron system (eV)
  ---------------------------------------------------
  alpha Z        PSCENC =       940.28209813
  Ewald energy   TEWEN  =    758194.41586537
  -Hartree energ DENC   =   -795313.42200725
  -exchange      EXHF   =         0.00000000
  -V(xc)+E(xc)   XCENC  =      -355.94567066
  PAW double counting   =     34117.71307710   -32549.87532384
  entropy T*S    EENTRO =        -0.05372003
  eigenvalues    EBANDS =     -1194.54355634
  atomic energy  EATOM  =     35266.91851613
  Solvation  Ediel_sol  =      3428.14150343
  ---------------------------------------------------
  free energy    TOTEN  =      2533.63078205 eV

  energy without entropy =     2533.68450208  energy(sigma->0) =     2533.65764207


--------------------------------------------------------------------------------------------------------




--------------------------------------- Iteration      1(   2)  ---------------------------------------


     EDDAV:  cpu time      1.4900: real time      1.4911
       DOS:  cpu time      0.0012: real time      0.0012
    --------------------------------------------
      LOOP:  cpu time      1.4912: real time      1.4923

 eigenvalue-minimisations  :  7128
 total energy-change (2. order) :-0.2544755E+04  (-0.2426925E+04)
 number of electron     374.0000000 magnetization 
 augmentation part      374.0000000 magnetization 

 Free energy of the ion-electron system (eV)
  ---------------------------------------------------
  alpha Z        PSCENC =       940.28209813
  Ewald energy   TEWEN  =    758194.41586537
  -Hartree energ DENC   =   -795313.42200725
  -exchange      EXHF   =         0.00000000
  -V(xc)+E(xc)   XCENC  =      -355.94567066
  PAW double counting   =     34117.71307710   -32549.87532384
  entropy T*S    EENTRO =        -0.05068244
  eigenvalues    EBANDS =     -3739.30147617
  atomic energy  EATOM  =     35266.91851613
  Solvation  Ediel_sol  =      3428.14150343
  ---------------------------------------------------
  free energy    TOTEN  =       -11.12410019 eV

  energy without entropy =      -11.07341775  energy(sigma->0) =      -11.09875897


--------------------------------------------------------------------------------------------------------




--------------------------------------- Iteration      1(   3)  ---------------------------------------


     EDDAV:  cpu time      1.5242: real time      1.5256
       DOS:  cpu time      0.0012: real time      0.0012
    --------------------------------------------
      LOOP:  cpu time      1.5255: real time      1.5268

 eigenvalue-minimisations  :  7280
 total energy-change (2. order) :-0.8934388E+02  (-0.8705159E+02)
 number of electron     374.0000000 magnetization 
 augmentation part      374.0000000 magnetization 

 Free energy of the ion-electron system (eV)
  ---------------------------------------------------
  alpha Z        PSCENC =       940.28209813
  Ewald energy   TEWEN  =    758194.41586537
  -Hartree energ DENC   =   -795313.42200725
  -exchange      EXHF   =         0.00000000
  -V(xc)+E(xc)   XCENC  =      -355.94567066
  PAW double counting   =     34117.71307710   -32549.87532384
  entropy T*S    EENTRO =        -0.05739807
  eigenvalues    EBANDS =     -3828.63863727
  atomic energy  EATOM  =     35266.91851613
  Solvation  Ediel_sol  =      3428.14150343
  ---------------------------------------------------
  free energy    TOTEN  =      -100.46797692 eV

  energy without entropy =     -100.41057885  energy(sigma->0) =     -100.43927788


--------------------------------------------------------------------------------------------------------




--------------------------------------- Iteration      1(   4)  ---------------------------------------


     EDDAV:  cpu time      1.5533: real time      1.5548
       DOS:  cpu time      0.0012: real time      0.0012
    --------------------------------------------
      LOOP:  cpu time      1.5545: real time      1.5560

 eigenvalue-minimisations  :  7544
 total energy-change (2. order) :-0.1446079E+01  (-0.1439156E+01)
 number of electron     374.0000000 magnetization 
 augmentation part      374.0000000 magnetization 

 Free energy of the ion-electron system (eV)
  ---------------------------------------------------
  alpha Z        PSCENC =       940.28209813
  Ewald energy   TEWEN  =    758194.41586537
  -Hartree energ DENC   =   -795313.42200725
  -exchange      EXHF   =         0.00000000
  -V(xc)+E(xc)   XCENC  =      -355.94567066
  PAW double counting   =     34117.71307710   -32549.87532384
  entropy T*S    EENTRO =        -0.05768411
  eigenvalues    EBANDS =     -3830.08443061
  atomic energy  EATOM  =     35266.91851613
  Solvation  Ediel_sol  =      3428.14150343
  ---------------------------------------------------
  free energy    TOTEN  =      -101.91405630 eV

  energy without entropy =     -101.85637219  energy(sigma->0) =     -101.88521424


--------------------------------------------------------------------------------------------------------




--------------------------------------- Iteration      1(   5)  ---------------------------------------


     EDDAV:  cpu time      1.5868: real time      1.5881
       DOS:  cpu time      0.0036: real time      0.0036
    CHARGE:  cpu time      0.0570: real time      0.0571
    MIXING:  cpu time      0.0018: real time      0.0018
    --------------------------------------------
      LOOP:  cpu time      1.6492: real time      1.6506

 eigenvalue-minimisations  :  7704
 total energy-change (2. order) :-0.3228455E-01  (-0.3226731E-01)
 number of electron     374.5000563 magnetization 
 augmentation part      172.7363329 magnetization 

 Broyden mixing:
  rms(total) = 0.29839E+01    rms(broyden)= 0.29838E+01
  rms(prec ) = 0.29958E+01
  weight for this iteration     100.00

 Free energy of the ion-electron system (eV)
  ---------------------------------------------------
  alpha Z        PSCENC =       940.28209813
  Ewald energy   TEWEN  =    758194.41586537
  -Hartree energ DENC   =   -795313.42200725
  -exchange      EXHF   =         0.00000000
  -V(xc)+E(xc)   XCENC  =      -355.94567066
  PAW double counting   =     34117.71307710   -32549.87532384
  entropy T*S    EENTRO =        -0.05766736
  eigenvalues    EBANDS =     -3830.11673191
  atomic energy  EATOM  =     35266.91851613
  Solvation  Ediel_sol  =      3428.14150343
  ---------------------------------------------------
  free energy    TOTEN  =      -101.94634085 eV

  energy without entropy =     -101.88867349  energy(sigma->0) =     -101.91750717


--------------------------------------------------------------------------------------------------------




--------------------------------------- Iteration      1(   6)  ---------------------------------------


    POTLOK:  cpu time      4.4956: real time      4.4988
    SETDIJ:  cpu time      0.2639: real time      0.2640
    EDDIAG:  cpu time      0.1582: real time      0.1583
  RMM-DIIS:  cpu time      0.5535: real time      0.5676
    ORTHCH:  cpu time      0.3582: real time      0.3583
       DOS:  cpu time      0.0014: real time      0.0014
    CHARGE:  cpu time      0.0515: real time      0.0515
    MIXING:  cpu time      0.0019: real time      0.0019
    --------------------------------------------
      LOOP:  cpu time      5.8841: real time      5.9017

 eigenvalue-minimisations  :  8493
 total energy-change (2. order) :-0.1375462E+03  (-0.9855147E+01)
 number of electron     374.5000540 magnetization 
 augmentation part      166.4930840 magnetization 

 Broyden mixing:
  rms(total) = 0.56420E+01    rms(broyden)= 0.56420E+01
  rms(prec ) = 0.91021E+01
  weight for this iteration     100.00

 eigenvalues of (default mixing * dielectric matrix)
  average eigenvalue GAMMA=   0.0215
  0.0215

 Free energy of the ion-electron system (eV)
  ---------------------------------------------------
  alpha Z        PSCENC =       940.28209813
  Ewald energy   TEWEN  =    758194.41586537
  -Hartree energ DENC   =   -795027.84679295
  -exchange      EXHF   =         0.00000000
  -V(xc)+E(xc)   XCENC  =      -366.39161770
  PAW double counting   =     35667.33617925   -34134.69336381
  entropy T*S    EENTRO =        -0.15643898
  eigenvalues    EBANDS =      -209.79728310
  atomic energy  EATOM  =     35266.91851613
  Solvation  Ediel_sol  =      -569.55970098
  ---------------------------------------------------
  free energy    TOTEN  =      -239.49253865 eV

  energy without entropy =     -239.33609967  energy(sigma->0) =     -239.41431916


--------------------------------------------------------------------------------------------------------




--------------------------------------- Iteration      1(   7)  ---------------------------------------


    POTLOK:  cpu time      4.4995: real time      4.5026
    SETDIJ:  cpu time      0.2418: real time      0.2420
    EDDIAG:  cpu time      0.1581: real time      0.1584
  RMM-DIIS:  cpu time      0.4957: real time      0.4962
    ORTHCH:  cpu time      0.1140: real time      0.1140
       DOS:  cpu time      0.1222: real time      0.1223
    CHARGE:  cpu time      0.0491: real time      0.0491
    MIXING:  cpu time      0.0019: real time      0.0019
    --------------------------------------------
      LOOP:  cpu time      5.6823: real time      5.6864

 eigenvalue-minimisations  :  9573
 total energy-change (2. order) : 0.4128433E+01  (-0.3494160E+01)
 number of electron     374.5000542 magnetization 
 augmentation part      166.4527586 magnetization 

 Broyden mixing:
  rms(total) = 0.53945E+01    rms(broyden)= 0.53945E+01
  rms(prec ) = 0.89919E+01
  weight for this iteration     100.00

 eigenvalues of (default mixing * dielectric matrix)
  average eigenvalue GAMMA=   0.2211
  0.2211  0.2211

 Free energy of the ion-electron system (eV)
  ---------------------------------------------------
  alpha Z        PSCENC =       940.28209813
  Ewald energy   TEWEN  =    758194.41586537
  -Hartree energ DENC   =   -795001.89974666
  -exchange      EXHF   =         0.00000000
  -V(xc)+E(xc)   XCENC  =      -366.53004583
  PAW double counting   =     35665.74991820   -34133.59153844
  entropy T*S    EENTRO =        -0.15975734
  eigenvalues    EBANDS =      -259.44906130
  atomic energy  EATOM  =     35266.91851613
  Solvation  Ediel_sol  =      -541.10035400
  ---------------------------------------------------
  free energy    TOTEN  =      -235.36410575 eV

  energy without entropy =     -235.20434840  energy(sigma->0) =     -235.28422708


--------------------------------------------------------------------------------------------------------




--------------------------------------- Iteration      1(   8)  ---------------------------------------


    POTLOK:  cpu time      4.5462: real time      4.5493
    SETDIJ:  cpu time      0.2469: real time      0.2470
    EDDIAG:  cpu time      0.1559: real time      0.1560
  RMM-DIIS:  cpu time      0.4396: real time      0.4400
    ORTHCH:  cpu time      0.4405: real time      0.4406
       DOS:  cpu time      0.0013: real time      0.0013
    CHARGE:  cpu time      0.0500: real time      0.0501
    MIXING:  cpu time      0.0018: real time      0.0018
    --------------------------------------------
      LOOP:  cpu time      5.8822: real time      5.8860

 eigenvalue-minimisations  :  8365
 total energy-change (2. order) : 0.1117471E+02  (-0.2314966E+01)
 number of electron     374.5000529 magnetization 
 augmentation part      166.5269325 magnetization 

 Broyden mixing:
  rms(total) = 0.73932E+01    rms(broyden)= 0.73932E+01
  rms(prec ) = 0.10797E+02
  weight for this iteration     100.00

 eigenvalues of (default mixing * dielectric matrix)
  average eigenvalue GAMMA=   0.1792
  0.2296  0.2296  0.0783

 Free energy of the ion-electron system (eV)
  ---------------------------------------------------
  alpha Z        PSCENC =       940.28209813
  Ewald energy   TEWEN  =    758194.41586537
  -Hartree energ DENC   =   -794738.57519875
  -exchange      EXHF   =         0.00000000
  -V(xc)+E(xc)   XCENC  =      -367.13092483
  PAW double counting   =     35377.67640124   -33840.86098150
  entropy T*S    EENTRO =        -0.10348810
  eigenvalues    EBANDS =      -952.94309421
  atomic energy  EATOM  =     35266.91851613
  Solvation  Ediel_sol  =      -103.86858587
  ---------------------------------------------------
  free energy    TOTEN  =      -224.18939239 eV

  energy without entropy =     -224.08590429  energy(sigma->0) =     -224.13764834


--------------------------------------------------------------------------------------------------------




--------------------------------------- Iteration      1(   9)  ---------------------------------------


    POTLOK:  cpu time      4.5010: real time      4.5036
    SETDIJ:  cpu time      0.2625: real time      0.2626
    EDDIAG:  cpu time      0.1553: real time      0.1553
  RMM-DIIS:  cpu time      0.4574: real time      0.4576
    ORTHCH:  cpu time      0.4140: real time      0.4141
       DOS:  cpu time      0.0109: real time      0.0109
    CHARGE:  cpu time      0.0482: real time      0.0482
    MIXING:  cpu time      0.0023: real time      0.0023
    --------------------------------------------
      LOOP:  cpu time      5.8517: real time      5.8547

 eigenvalue-minimisations  :  8767
 total energy-change (2. order) : 0.1030701E+02  (-0.1219453E+01)
 number of electron     374.5000517 magnetization 
 augmentation part      165.8338468 magnetization 

 Broyden mixing:
  rms(total) = 0.68333E+01    rms(broyden)= 0.68332E+01
  rms(prec ) = 0.10405E+02
  weight for this iteration     100.00

 eigenvalues of (default mixing * dielectric matrix)
  average eigenvalue GAMMA=   0.1499
  0.2333  0.2333  0.0665  0.0665

 Free energy of the ion-electron system (eV)
  ---------------------------------------------------
  alpha Z        PSCENC =       940.28209813
  Ewald energy   TEWEN  =    758194.41586537
  -Hartree energ DENC   =   -794693.78453478
  -exchange      EXHF   =         0.00000000
  -V(xc)+E(xc)   XCENC  =      -367.11770370
  PAW double counting   =     35320.88888347   -33783.02673790
  entropy T*S    EENTRO =        -0.12936363
  eigenvalues    EBANDS =     -1060.42489698
  atomic energy  EATOM  =     35266.91851613
  Solvation  Ediel_sol  =       -31.90450637
  ---------------------------------------------------
  free energy    TOTEN  =      -213.88238025 eV

  energy without entropy =     -213.75301662  energy(sigma->0) =     -213.81769844


--------------------------------------------------------------------------------------------------------




--------------------------------------- Iteration      1(  10)  ---------------------------------------


    POTLOK:  cpu time      4.5102: real time      4.5130
    SETDIJ:  cpu time      0.2445: real time      0.2447
    EDDIAG:  cpu time      0.1573: real time      0.1573
  RMM-DIIS:  cpu time      0.4643: real time      0.4646
    ORTHCH:  cpu time      0.1220: real time      0.1222
       DOS:  cpu time      0.0204: real time      0.0205
    CHARGE:  cpu time      0.0501: real time      0.0501
    MIXING:  cpu time      0.0020: real time      0.0020
    --------------------------------------------
      LOOP:  cpu time      5.5710: real time      5.5745

 eigenvalue-minimisations  :  8918
 total energy-change (2. order) :-0.4770608E+01  (-0.6109169E+00)
 number of electron     374.5000517 magnetization 
 augmentation part      165.4873711 magnetization 

 Broyden mixing:
  rms(total) = 0.69501E+01    rms(broyden)= 0.69501E+01
  rms(prec ) = 0.10591E+02
  weight for this iteration     100.00

 eigenvalues of (default mixing * dielectric matrix)
  average eigenvalue GAMMA=   0.3793
  0.6011  0.6011  0.4212  0.1926  0.0802

 Free energy of the ion-electron system (eV)
  ---------------------------------------------------
  alpha Z        PSCENC =       940.28209813
  Ewald energy   TEWEN  =    758194.41586537
  -Hartree energ DENC   =   -794723.97638408
  -exchange      EXHF   =         0.00000000
  -V(xc)+E(xc)   XCENC  =      -367.09378112
  PAW double counting   =     35359.65236223   -33822.39421805
  entropy T*S    EENTRO =        -0.12583273
  eigenvalues    EBANDS =      -997.62101381
  atomic energy  EATOM  =     35266.91851613
  Solvation  Ediel_sol  =       -68.71060003
  ---------------------------------------------------
  free energy    TOTEN  =      -218.65298795 eV

  energy without entropy =     -218.52715523  energy(sigma->0) =     -218.59007159


--------------------------------------------------------------------------------------------------------




--------------------------------------- Iteration      1(  11)  ---------------------------------------


    POTLOK:  cpu time      4.5479: real time      4.5513
    SETDIJ:  cpu time      0.2510: real time      0.2511
    EDDIAG:  cpu time      0.1570: real time      0.1571
  RMM-DIIS:  cpu time      0.5582: real time      0.5585
    ORTHCH:  cpu time      0.1106: real time      0.1106
       DOS:  cpu time      0.5504: real time      0.5506
    CHARGE:  cpu time      0.0506: real time      0.0506
    MIXING:  cpu time      0.0025: real time      0.0025
    --------------------------------------------
      LOOP:  cpu time      6.2281: real time      6.2323

 eigenvalue-minimisations  : 10932
 total energy-change (2. order) : 0.6661879E+02  (-0.4840282E+01)
 number of electron     374.5000545 magnetization 
 augmentation part      170.7559344 magnetization 

 Broyden mixing:
  rms(total) = 0.62279E+01    rms(broyden)= 0.62279E+01
  rms(prec ) = 0.79979E+01
  weight for this iteration     100.00

 eigenvalues of (default mixing * dielectric matrix)
  average eigenvalue GAMMA=   0.4739
  0.6860  0.6860  0.7672  0.4316  0.1921  0.0803

 Free energy of the ion-electron system (eV)
  ---------------------------------------------------
  alpha Z        PSCENC =       940.28209813
  Ewald energy   TEWEN  =    758194.41586537
  -Hartree energ DENC   =   -793862.79993098
  -exchange      EXHF   =         0.00000000
  -V(xc)+E(xc)   XCENC  =      -367.40847681
  PAW double counting   =     34564.08574698   -33013.22798345
  entropy T*S    EENTRO =        -0.18268250
  eigenvalues    EBANDS =     -2881.04445332
  atomic energy  EATOM  =     35266.91851613
  Solvation  Ediel_sol  =      1006.92710034
  ---------------------------------------------------
  free energy    TOTEN  =      -152.03420010 eV

  energy without entropy =     -151.85151760  energy(sigma->0) =     -151.94285885


--------------------------------------------------------------------------------------------------------




--------------------------------------- Iteration      1(  12)  ---------------------------------------


    POTLOK:  cpu time      4.5664: real time      4.5694
    SETDIJ:  cpu time      0.2268: real time      0.2269
    EDDIAG:  cpu time      0.1550: real time      0.1552
  RMM-DIIS:  cpu time      0.5581: real time      0.5584
    ORTHCH:  cpu time      0.2678: real time      0.2679
       DOS:  cpu time      0.4015: real time      0.4018
    CHARGE:  cpu time      0.0504: real time      0.0504
    MIXING:  cpu time      0.0027: real time      0.0027
    --------------------------------------------
      LOOP:  cpu time      6.2288: real time      6.2327

 eigenvalue-minimisations  : 10841
 total energy-change (2. order) :-0.8216171E+01  (-0.4494472E+01)
 number of electron     374.5000563 magnetization 
 augmentation part      174.7172823 magnetization 

 Broyden mixing:
  rms(total) = 0.63504E+01    rms(broyden)= 0.63504E+01
  rms(prec ) = 0.68695E+01
  weight for this iteration     100.00

 eigenvalues of (default mixing * dielectric matrix)
  average eigenvalue GAMMA=   0.4617
  0.6683  0.6683  0.8158  0.4055  0.4055  0.1879  0.0803

 Free energy of the ion-electron system (eV)
  ---------------------------------------------------
  alpha Z        PSCENC =       940.28209813
  Ewald energy   TEWEN  =    758194.41586537
  -Hartree energ DENC   =   -792496.46379043
  -exchange      EXHF   =         0.00000000
  -V(xc)+E(xc)   XCENC  =      -368.09500422
  PAW double counting   =     33739.97003002   -32179.89291404
  entropy T*S    EENTRO =        -0.15015456
  eigenvalues    EBANDS =     -6284.62816490
  atomic energy  EATOM  =     35266.91851613
  Solvation  Ediel_sol  =      3027.39314700
  ---------------------------------------------------
  free energy    TOTEN  =      -160.25037149 eV

  energy without entropy =     -160.10021694  energy(sigma->0) =     -160.17529422


--------------------------------------------------------------------------------------------------------




--------------------------------------- Iteration      1(  13)  ---------------------------------------


    POTLOK:  cpu time      4.5264: real time      4.5293
    SETDIJ:  cpu time      0.2495: real time      0.2496
    EDDIAG:  cpu time      0.1570: real time      0.1570
  RMM-DIIS:  cpu time      0.4218: real time      0.4220
    ORTHCH:  cpu time      0.5352: real time      0.5354
       DOS:  cpu time      0.0058: real time      0.0058
    CHARGE:  cpu time      0.0494: real time      0.0494
    MIXING:  cpu time      0.0024: real time      0.0024
    --------------------------------------------
      LOOP:  cpu time      5.9474: real time      5.9510

 eigenvalue-minimisations  :  8273
 total energy-change (2. order) :-0.1271270E+01  (-0.1486712E+00)
 number of electron     374.5000560 magnetization 
 augmentation part      174.2170696 magnetization 

 Broyden mixing:
  rms(total) = 0.66509E+01    rms(broyden)= 0.66509E+01
  rms(prec ) = 0.72109E+01
  weight for this iteration     100.00

 eigenvalues of (default mixing * dielectric matrix)
  average eigenvalue GAMMA=   0.5359
  0.6944  0.6944  0.9051  0.6865  0.6865  0.3491  0.1907  0.0803

 Free energy of the ion-electron system (eV)
  ---------------------------------------------------
  alpha Z        PSCENC =       940.28209813
  Ewald energy   TEWEN  =    758194.41586537
  -Hartree energ DENC   =   -792542.24429314
  -exchange      EXHF   =         0.00000000
  -V(xc)+E(xc)   XCENC  =      -367.85927600
  PAW double counting   =     33729.62108324   -32168.78194283
  entropy T*S    EENTRO =        -0.15622810
  eigenvalues    EBANDS =     -6197.75756055
  atomic energy  EATOM  =     35266.91851613
  Solvation  Ediel_sol  =      2984.04009632
  ---------------------------------------------------
  free energy    TOTEN  =      -161.52164143 eV

  energy without entropy =     -161.36541332  energy(sigma->0) =     -161.44352737


--------------------------------------------------------------------------------------------------------




--------------------------------------- Iteration      1(  14)  ---------------------------------------


    POTLOK:  cpu time      4.5565: real time      4.5594
    SETDIJ:  cpu time      0.2304: real time      0.2305
    EDDIAG:  cpu time      0.1559: real time      0.1559
  RMM-DIIS:  cpu time      0.4726: real time      0.4727
    ORTHCH:  cpu time      0.1081: real time      0.1082
       DOS:  cpu time      0.6867: real time      0.6880
    CHARGE:  cpu time      0.0488: real time      0.0489
    MIXING:  cpu time      0.0027: real time      0.0027
    --------------------------------------------
      LOOP:  cpu time      6.2617: real time      6.2663

 eigenvalue-minimisations  :  9178
 total energy-change (2. order) :-0.3239577E+01  (-0.2601694E+00)
 number of electron     374.5000559 magnetization 
 augmentation part      173.2801208 magnetization 

 Broyden mixing:
  rms(total) = 0.64446E+01    rms(broyden)= 0.64446E+01
  rms(prec ) = 0.70420E+01
  weight for this iteration     100.00

 eigenvalues of (default mixing * dielectric matrix)
  average eigenvalue GAMMA=   0.6425
  1.4464  0.7261  0.7261  0.8036  0.8036  0.6276  0.3785  0.1906  0.0803

 Free energy of the ion-electron system (eV)
  ---------------------------------------------------
  alpha Z        PSCENC =       940.28209813
  Ewald energy   TEWEN  =    758194.41586537
  -Hartree energ DENC   =   -792011.45546263
  -exchange      EXHF   =         0.00000000
  -V(xc)+E(xc)   XCENC  =      -368.47067087
  PAW double counting   =     34325.05235805   -32775.60990476
  entropy T*S    EENTRO =        -0.12035788
  eigenvalues    EBANDS =     -7129.93524998
  atomic energy  EATOM  =     35266.91851613
  Solvation  Ediel_sol  =      3394.16159048
  ---------------------------------------------------
  free energy    TOTEN  =      -164.76121796 eV

  energy without entropy =     -164.64086008  energy(sigma->0) =     -164.70103902


--------------------------------------------------------------------------------------------------------




--------------------------------------- Iteration      1(  15)  ---------------------------------------


    POTLOK:  cpu time      4.5489: real time      4.5516
    SETDIJ:  cpu time      0.2793: real time      0.2793
    EDDIAG:  cpu time      0.1555: real time      0.1555
  RMM-DIIS:  cpu time      0.5344: real time      0.5351
    ORTHCH:  cpu time      0.4421: real time      0.4422
       DOS:  cpu time      0.0012: real time      0.0012
    CHARGE:  cpu time      0.0486: real time      0.0487
    MIXING:  cpu time      0.0026: real time      0.0026
    --------------------------------------------
      LOOP:  cpu time      6.0126: real time      6.0162

 eigenvalue-minimisations  : 10302
 total energy-change (2. order) : 0.4786535E+00  (-0.6742843E+00)
 number of electron     374.5000573 magnetization 
 augmentation part      175.3310243 magnetization 

 Broyden mixing:
  rms(total) = 0.49707E+01    rms(broyden)= 0.49707E+01
  rms(prec ) = 0.53406E+01
  weight for this iteration     100.00

 eigenvalues of (default mixing * dielectric matrix)
  average eigenvalue GAMMA=   0.6511
  1.3035  1.1001  1.1001  0.7391  0.7391  0.0803  0.1906  0.4081  0.4081  0.4424

 Free energy of the ion-electron system (eV)
  ---------------------------------------------------
  alpha Z        PSCENC =       940.28209813
  Ewald energy   TEWEN  =    758194.41586537
  -Hartree energ DENC   =   -790660.03058474
  -exchange      EXHF   =         0.00000000
  -V(xc)+E(xc)   XCENC  =      -372.57034703
  PAW double counting   =     35132.15921412   -33606.89926565
  entropy T*S    EENTRO =        -0.18365868
  eigenvalues    EBANDS =     -9748.54378582
  atomic energy  EATOM  =     35266.91851613
  Solvation  Ediel_sol  =      4690.16938369
  ---------------------------------------------------
  free energy    TOTEN  =      -164.28256447 eV

  energy without entropy =     -164.09890579  energy(sigma->0) =     -164.19073513


--------------------------------------------------------------------------------------------------------




--------------------------------------- Iteration      1(  16)  ---------------------------------------


    POTLOK:  cpu time      4.5376: real time      4.5417
    SETDIJ:  cpu time      0.2760: real time      0.2761
    EDDIAG:  cpu time      0.1554: real time      0.1555
  RMM-DIIS:  cpu time      0.4892: real time      0.4894
    ORTHCH:  cpu time      0.6237: real time      0.6245
       DOS:  cpu time      0.0013: real time      0.0013
    CHARGE:  cpu time      0.0557: real time      0.0560
    MIXING:  cpu time      0.0029: real time      0.0029
    --------------------------------------------
      LOOP:  cpu time      6.1418: real time      6.1474

 eigenvalue-minimisations  :  9642
 total energy-change (2. order) : 0.2176222E+02  (-0.8502046E+00)
 number of electron     374.5000580 magnetization 
 augmentation part      178.9825080 magnetization 

 Broyden mixing:
  rms(total) = 0.34910E+01    rms(broyden)= 0.34910E+01
  rms(prec ) = 0.37372E+01
  weight for this iteration     100.00

 eigenvalues of (default mixing * dielectric matrix)
  average eigenvalue GAMMA=   0.6404
  1.4617  0.7407  0.7407  1.0350  1.0350  0.5441  0.5441  0.0803  0.1906  0.3363
  0.3363

 Free energy of the ion-electron system (eV)
  ---------------------------------------------------
  alpha Z        PSCENC =       940.28209813
  Ewald energy   TEWEN  =    758194.41586537
  -Hartree energ DENC   =   -790764.73476922
  -exchange      EXHF   =         0.00000000
  -V(xc)+E(xc)   XCENC  =      -373.81859519
  PAW double counting   =     35545.64640001   -34031.02446479
  entropy T*S    EENTRO =        -0.06992647
  eigenvalues    EBANDS =     -9208.64564290
  atomic energy  EATOM  =     35266.91851613
  Solvation  Ediel_sol  =      4288.51017264
  ---------------------------------------------------
  free energy    TOTEN  =      -142.52034628 eV

  energy without entropy =     -142.45041981  energy(sigma->0) =     -142.48538305


--------------------------------------------------------------------------------------------------------




--------------------------------------- Iteration      1(  17)  ---------------------------------------


    POTLOK:  cpu time      4.5520: real time      4.5556
    SETDIJ:  cpu time      0.2313: real time      0.2313
    EDDIAG:  cpu time      0.1561: real time      0.1562
  RMM-DIIS:  cpu time      0.4008: real time      0.4013
    ORTHCH:  cpu time      0.3151: real time      0.3152
       DOS:  cpu time      0.0622: real time      0.0622
    CHARGE:  cpu time      0.0491: real time      0.0491
    MIXING:  cpu time      0.0029: real time      0.0029
    --------------------------------------------
      LOOP:  cpu time      5.7694: real time      5.7739

 eigenvalue-minimisations  :  7912
 total energy-change (2. order) : 0.2565426E+01  (-0.5654131E-01)
 number of electron     374.5000579 magnetization 
 augmentation part      178.9954151 magnetization 

 Broyden mixing:
  rms(total) = 0.31171E+01    rms(broyden)= 0.31171E+01
  rms(prec ) = 0.33293E+01
  weight for this iteration     100.00

 eigenvalues of (default mixing * dielectric matrix)
  average eigenvalue GAMMA=   0.7158
  2.0059  0.7406  0.7406  1.0269  1.0269  0.7819  0.7819  0.0803  0.1906  0.4757
  0.3691  0.3691

 Free energy of the ion-electron system (eV)
  ---------------------------------------------------
  alpha Z        PSCENC =       940.28209813
  Ewald energy   TEWEN  =    758194.41586537
  -Hartree energ DENC   =   -790547.27200768
  -exchange      EXHF   =         0.00000000
  -V(xc)+E(xc)   XCENC  =      -373.77039710
  PAW double counting   =     35832.22205860   -34322.08767404
  entropy T*S    EENTRO =        -0.04159009
  eigenvalues    EBANDS =     -9582.14766881
  atomic energy  EATOM  =     35266.91851613
  Solvation  Ediel_sol  =      4451.52587878
  ---------------------------------------------------
  free energy    TOTEN  =      -139.95492071 eV

  energy without entropy =     -139.91333063  energy(sigma->0) =     -139.93412567


--------------------------------------------------------------------------------------------------------




--------------------------------------- Iteration      1(  18)  ---------------------------------------


    POTLOK:  cpu time      4.5602: real time      4.5646
    SETDIJ:  cpu time      0.2424: real time      0.2425
    EDDIAG:  cpu time      0.1570: real time      0.1571
  RMM-DIIS:  cpu time      0.4305: real time      0.4307
    ORTHCH:  cpu time      0.5300: real time      0.5303
       DOS:  cpu time      0.0011: real time      0.0011
    CHARGE:  cpu time      0.0486: real time      0.0486
    MIXING:  cpu time      0.0031: real time      0.0031
    --------------------------------------------
      LOOP:  cpu time      5.9730: real time      5.9780

 eigenvalue-minimisations  :  8437
 total energy-change (2. order) : 0.4613303E+01  (-0.8795077E-01)
 number of electron     374.5000577 magnetization 
 augmentation part      178.9281168 magnetization 

 Broyden mixing:
  rms(total) = 0.25906E+01    rms(broyden)= 0.25906E+01
  rms(prec ) = 0.27624E+01
  weight for this iteration     100.00

 eigenvalues of (default mixing * dielectric matrix)
  average eigenvalue GAMMA=   0.7977
  1.9914  1.5714  1.5714  0.7376  0.7376  0.8136  0.8136  0.5664  0.5664  0.0803
  0.1906  0.3647  0.3647

 Free energy of the ion-electron system (eV)
  ---------------------------------------------------
  alpha Z        PSCENC =       940.28209813
  Ewald energy   TEWEN  =    758194.41586537
  -Hartree energ DENC   =   -790313.69354456
  -exchange      EXHF   =         0.00000000
  -V(xc)+E(xc)   XCENC  =      -373.63215167
  PAW double counting   =     36262.15577724   -34757.58490862
  entropy T*S    EENTRO =        -0.04312801
  eigenvalues    EBANDS =     -9996.40769589
  atomic energy  EATOM  =     35266.91851613
  Solvation  Ediel_sol  =      4642.24755436
  ---------------------------------------------------
  free energy    TOTEN  =      -135.34161753 eV

  energy without entropy =     -135.29848952  energy(sigma->0) =     -135.32005352


--------------------------------------------------------------------------------------------------------




--------------------------------------- Iteration      1(  19)  ---------------------------------------


    POTLOK:  cpu time      4.5546: real time      4.5572
    SETDIJ:  cpu time      0.2430: real time      0.2431
    EDDIAG:  cpu time      0.1552: real time      0.1553
  RMM-DIIS:  cpu time      0.5061: real time      0.5063
    ORTHCH:  cpu time      0.1550: real time      0.1551
       DOS:  cpu time      0.0011: real time      0.0011
    CHARGE:  cpu time      0.0473: real time      0.0473
    MIXING:  cpu time      0.0028: real time      0.0028
    --------------------------------------------
      LOOP:  cpu time      5.6651: real time      5.6682

 eigenvalue-minimisations  :  9854
 total energy-change (2. order) : 0.1183620E+02  (-0.3542748E+00)
 number of electron     374.5000575 magnetization 
 augmentation part      178.9942128 magnetization 

 Broyden mixing:
  rms(total) = 0.16277E+01    rms(broyden)= 0.16277E+01
  rms(prec ) = 0.17598E+01
  weight for this iteration     100.00

 eigenvalues of (default mixing * dielectric matrix)
  average eigenvalue GAMMA=   0.7676
  2.0585  1.6247  1.6247  0.7373  0.7373  0.8045  0.8045  0.5481  0.5481  0.0803
  0.1906  0.3631  0.3631  0.2622

 Free energy of the ion-electron system (eV)
  ---------------------------------------------------
  alpha Z        PSCENC =       940.28209813
  Ewald energy   TEWEN  =    758194.41586537
  -Hartree energ DENC   =   -790348.96750301
  -exchange      EXHF   =         0.00000000
  -V(xc)+E(xc)   XCENC  =      -373.25076415
  PAW double counting   =     36963.78222670   -35467.74253615
  entropy T*S    EENTRO =        -0.04068731
  eigenvalues    EBANDS =     -9790.28715001
  atomic energy  EATOM  =     35266.91851613
  Solvation  Ediel_sol  =      4491.38451914
  ---------------------------------------------------
  free energy    TOTEN  =      -123.50541515 eV

  energy without entropy =     -123.46472784  energy(sigma->0) =     -123.48507150


--------------------------------------------------------------------------------------------------------




--------------------------------------- Iteration      1(  20)  ---------------------------------------


    POTLOK:  cpu time      4.5557: real time      4.5587
    SETDIJ:  cpu time      0.2207: real time      0.2207
    EDDIAG:  cpu time      0.1560: real time      0.1561
  RMM-DIIS:  cpu time      0.4180: real time      0.4181
    ORTHCH:  cpu time      0.1932: real time      0.1933
       DOS:  cpu time      0.1415: real time      0.1416
    CHARGE:  cpu time      0.0480: real time      0.0481
    MIXING:  cpu time      0.0036: real time      0.0036
    --------------------------------------------
      LOOP:  cpu time      5.7366: real time      5.7403

 eigenvalue-minimisations  :  8271
 total energy-change (2. order) : 0.4740430E+01  (-0.7388448E-01)
 number of electron     374.5000576 magnetization 
 augmentation part      179.1354537 magnetization 

 Broyden mixing:
  rms(total) = 0.12802E+01    rms(broyden)= 0.12802E+01
  rms(prec ) = 0.14244E+01
  weight for this iteration     100.00

 eigenvalues of (default mixing * dielectric matrix)
  average eigenvalue GAMMA=   0.7657
  2.0958  1.6062  1.6062  0.7367  0.7367  0.7842  0.7842  0.5087  0.5087  0.5583
  0.5583  0.0803  0.1906  0.3650  0.3650

 Free energy of the ion-electron system (eV)
  ---------------------------------------------------
  alpha Z        PSCENC =       940.28209813
  Ewald energy   TEWEN  =    758194.41586537
  -Hartree energ DENC   =   -790438.59525528
  -exchange      EXHF   =         0.00000000
  -V(xc)+E(xc)   XCENC  =      -373.35664542
  PAW double counting   =     37247.82492217   -35756.75013183
  entropy T*S    EENTRO =        -0.04569652
  eigenvalues    EBANDS =     -9604.56473808
  atomic energy  EATOM  =     35266.91851613
  Solvation  Ediel_sol  =      4405.10607975
  ---------------------------------------------------
  free energy    TOTEN  =      -118.76498558 eV

  energy without entropy =     -118.71928906  energy(sigma->0) =     -118.74213732


--------------------------------------------------------------------------------------------------------




--------------------------------------- Iteration      1(  21)  ---------------------------------------


    POTLOK:  cpu time      4.5223: real time      4.5255
    SETDIJ:  cpu time      0.2502: real time      0.2503
    EDDIAG:  cpu time      0.1556: real time      0.1557
  RMM-DIIS:  cpu time      0.4350: real time      0.4353
    ORTHCH:  cpu time      0.4466: real time      0.4466
       DOS:  cpu time      0.1743: real time      0.1743
    CHARGE:  cpu time      0.0499: real time      0.0500
    MIXING:  cpu time      0.0037: real time      0.0037
    --------------------------------------------
      LOOP:  cpu time      6.0376: real time      6.0413

 eigenvalue-minimisations  :  8532
 total energy-change (2. order) : 0.5411633E+01  (-0.8451339E-01)
 number of electron     374.5000577 magnetization 
 augmentation part      179.3305730 magnetization 

 Broyden mixing:
  rms(total) = 0.10020E+01    rms(broyden)= 0.10020E+01
  rms(prec ) = 0.11552E+01
  weight for this iteration     100.00

 eigenvalues of (default mixing * dielectric matrix)
  average eigenvalue GAMMA=   0.7791
  2.0987  1.6145  1.6145  0.7371  0.7371  0.7272  0.7272  0.7453  0.7453  0.6355
  0.5160  0.0803  0.1906  0.3650  0.3650  0.5666

 Free energy of the ion-electron system (eV)
  ---------------------------------------------------
  alpha Z        PSCENC =       940.28209813
  Ewald energy   TEWEN  =    758194.41586537
  -Hartree energ DENC   =   -790642.80102990
  -exchange      EXHF   =         0.00000000
  -V(xc)+E(xc)   XCENC  =      -373.46143004
  PAW double counting   =     37427.77696371   -35941.16861869
  entropy T*S    EENTRO =        -0.03752243
  eigenvalues    EBANDS =     -9067.51235268
  atomic energy  EATOM  =     35266.91851613
  Solvation  Ediel_sol  =      4082.23415782
  ---------------------------------------------------
  free energy    TOTEN  =      -113.35335257 eV

  energy without entropy =     -113.31583014  energy(sigma->0) =     -113.33459135


--------------------------------------------------------------------------------------------------------




--------------------------------------- Iteration      1(  22)  ---------------------------------------


    POTLOK:  cpu time      4.5415: real time      4.5444
    SETDIJ:  cpu time      0.2257: real time      0.2258
    EDDIAG:  cpu time      0.1562: real time      0.1562
  RMM-DIIS:  cpu time      0.4098: real time      0.4102
    ORTHCH:  cpu time      0.2147: real time      0.2148
       DOS:  cpu time      0.0257: real time      0.0257
    CHARGE:  cpu time      0.0506: real time      0.0507
    MIXING:  cpu time      0.0042: real time      0.0042
    --------------------------------------------
      LOOP:  cpu time      5.6284: real time      5.6319

 eigenvalue-minimisations  :  8150
 total energy-change (2. order) : 0.3194064E+01  (-0.4341609E-01)
 number of electron     374.5000577 magnetization 
 augmentation part      179.3043965 magnetization 

 Broyden mixing:
  rms(total) = 0.86056E+00    rms(broyden)= 0.86056E+00
  rms(prec ) = 0.10402E+01
  weight for this iteration     100.00

 eigenvalues of (default mixing * dielectric matrix)
  average eigenvalue GAMMA=   0.9878
  2.2615  2.2615  1.9614  1.6427  1.6427  0.7375  0.7375  0.8670  0.8670  0.7848
  0.7848  0.7394  0.0803  0.1906  0.5041  0.3650  0.3650

 Free energy of the ion-electron system (eV)
  ---------------------------------------------------
  alpha Z        PSCENC =       940.28209813
  Ewald energy   TEWEN  =    758194.41586537
  -Hartree energ DENC   =   -790817.27215504
  -exchange      EXHF   =         0.00000000
  -V(xc)+E(xc)   XCENC  =      -373.20982177
  PAW double counting   =     37503.14903882   -36017.99528495
  entropy T*S    EENTRO =        -0.03766236
  eigenvalues    EBANDS =     -8603.23900047
  atomic energy  EATOM  =     35266.91851613
  Solvation  Ediel_sol  =      3796.82911750
  ---------------------------------------------------
  free energy    TOTEN  =      -110.15928865 eV

  energy without entropy =     -110.12162629  energy(sigma->0) =     -110.14045747


--------------------------------------------------------------------------------------------------------




--------------------------------------- Iteration      1(  23)  ---------------------------------------


    POTLOK:  cpu time      4.5444: real time      4.5476
    SETDIJ:  cpu time      0.2294: real time      0.2295
    EDDIAG:  cpu time      0.1555: real time      0.1555
  RMM-DIIS:  cpu time      0.4612: real time      0.4614
[...]
  318          m_sumb_d                              0.000012                          1   4
  319        chggra                                0.001077                            1   3
  320          fft3d_mpi                             0.000739                          3   4
  321            fftbrc_mpi                            0.000630                        3   5
  322              fftbas_plan_mpi                       0.000627                      3   6
  323                map_forward                           0.000354                    4   7
  324                  map_gather                            0.000039                  2   8
  325                  m_alltoallv_z                         0.000245                  2   8
  326                  map_scatter                           0.000040                  2   8
  327                map_backward                          0.000172                    2   7
  328                  map_gather                            0.000019                  1   8
  329                  m_alltoallv_z                         0.000114                  1   8
  330                  map_scatter                           0.000019                  1   8
  331          m_sumb_d                              0.000016                          2   4
  332          pothar                                0.000086                          1   4
  333            m_sumb_d                              0.000013                        1   5
  334        brmix                                 0.010354                            1   3
  335          m_sumb_d                              0.000093                          6   4
  336          brpre                                 0.000032                          1   4
  337          setg0                                 0.000572                          1   4
  338          broyd                                 0.009135                          1   4
  339            m_sumb_d                              0.004416                       50   5
  340            brget                                 0.000580                      224   5
  341            brsav                                 0.000157                       48   5
  342          m_bcast_z                             0.000082                          1   4
  343          m_bcast_d                             0.000024                          1   4
  344        augmentation_charge                   0.004900                            1   3
  345          fft3d_mpi                             0.002002                          1   4
  346            fftbrc_mpi                            0.001876                        1   5
  347              fftbas_plan_mpi                       0.001875                      1   6
  348                dfftw_execute                         0.000629                    3   7
  349                map_backward                          0.001140                    2   7
  350                  map_gather                            0.000123                  1   8
  351                  m_alltoallv_z                         0.000785                  1   8
  352                  map_scatter                           0.000232                  1   8
  353        m_bcast_d                             0.000102                            2   3
  354      potlok                                4.417306                              1   2
  355        fft3d_mpi                             0.265578                         1068   3
  356          fftbrc_mpi                            0.228998                       1068   4
  357            fftbas_plan_mpi                       0.228364                     1068   5
  358              map_forward                           0.086698                    966   6
  359                map_gather                            0.009625                  484   7
  360                m_alltoallv_z                         0.060780                  484   7
  361                map_scatter                           0.009537                  484   7
  362              map_backward                          0.107751                   1170   6
  363                map_gather                            0.011359                  585   7
  364                m_alltoallv_z                         0.074056                  585   7
  365                map_scatter                           0.011275                  585   7
  366        ggaall_grid                           0.000092                            1   3
  367        m_sumb_d                              0.013151                          357   3
  368        pothar                                0.000093                            1   3
  369          m_sumb_d                              0.000018                          1   4
  370        m_bcast_d                             0.000112                            1   3
  371      potlok_metagga                        0.000000                              1   2
  372      set_dd_magatom                        0.000004                              1   2
  373      set_dd_paw                            0.271998                              1   2
  374        set_rsgf_all                          0.000001                            1   3
  375        m_sumb_d                              0.110987                            8   3
  376      densta                                0.001146                              1   2
  377        m_sumb_d                              0.000709                           41   3
 
 Flat profile
 ============
 
             routine name                   CPU           calls
 ---------------------------------------------------------------
 potlok                                249.300922          60
 m_sumb_d                               18.267926       45858
 redis_pw                               15.764280       17502
 m_alltoall_d                           11.053965      169974
 m_alltoallv_z                          10.400791       78733
 set_dd_paw                              9.847981          61
 total_time                              6.747481           1
 eccp                                    4.481325       59102
 force_and_stress                        3.873637           1
 w1_gemv                                 3.123506       97042
 fft3d_mpi                               2.759290      127428
 i2                                      2.710914        8577
 fftbas_plan_mpi                         2.517139       78614
 phaser                                  2.179819         608
 eccp_nl                                 2.049626       44990
 eddiag                                  1.952508          58
 wfinit                                  1.809286           1
 lapack                                  1.640841        3546
 map_scatter                             1.594609       78733
 map_gather                              1.563987       78733
 init_acc                                1.411991           1
 raccmu_                                 1.399434       12123
 cnorma                                  1.210585       44990
 eddrmm                                  1.133645          58
 eddav                                   1.109142           5
 m_bcast_z                               1.073622        7031
 fft3d                                   0.901684      127337
 fftwav                                  0.865599       78523
 overl1                                  0.829829       48521
 map_backward                            0.821326       86448
 soft_charge                             0.616877          59
 w1_copy                                 0.586791      107466
 hamilt_local                            0.573026       12992
 w1_dscal                                0.558106       89989
 orth1                                   0.547820       17190
 newband                                 0.508557       12627
 set_charge                              0.503841          59
 setup_precond                           0.500756       14112
 map_forward                             0.497168       70780
 rpromu_acc                              0.490184       11731
 acc_cufft_makeplan                      0.460788          19
 hamiltmu                                0.441003       12123
 racc0mu_acc                             0.407387       12123
 redis_proj                              0.407129       14832
 pw_charge                               0.404274       11518
 w1_daxpy                                0.377641       64274
 w1_dot                                  0.377331       12853
 apply_precond                           0.376312       81238
 w1_gaxpy                                0.349859       65959
 m_bcast_d                               0.331213        7215
 choleski                                0.238481         472
 kinhamil                                0.220327       48814
 vhamil                                  0.219229       48814
 fftext_mpi                              0.197194       48814
 depsum                                  0.185984          59
 overl_mu                                0.185055       12123
 rpro_isp                                0.183308         104
 elmin                                   0.179851           1
 setdij_                                 0.178283          87
 augmentation_charge                     0.173906          60
 rspher_all                              0.169332          14
 zhegv                                   0.147026       19284
 orthch                                  0.119586          59
 fftwav_mpi                              0.118884       78523
 broyd                                   0.117839          59
 i3                                      0.116221        8577
 ggemm                                   0.106146        4666
 proall                                  0.075163           1
 dfftw_execute                           0.067081         387
 overl                                   0.062252        6908
 acc_init_cublas                         0.057941           1
 lincom                                  0.053796         976
 fftbrc_mpi                              0.047508       78614
 brmix                                   0.035251          59
 setg0                                   0.033522          60
 brget                                   0.023642        8756
 densta                                  0.023602          64
 acc_init_cusolver                       0.019537           1
 i1                                      0.019284        8577
 inisym                                  0.016888           1
 w1_projall                              0.011213       11003
 stufak                                  0.010790           1
 brsav                                   0.007205        2233
 ggaall_grid                             0.006699          61
 pothar                                  0.004666          61
 truncate_high_frequency_w1              0.004440       49934
 fft_gq                                  0.004139          59
 forloc                                  0.002632           1
 strnlr                                  0.002553           1
 brpre                                   0.001830          59
 strelo                                  0.001585           1
 strkin                                  0.001073           1
 strehar                                 0.001034           1
 rsp                                     0.001000           1
 fornlr                                  0.000880           1
 forhar                                  0.000641           2
 posmap                                  0.000445           2
 fewald                                  0.000380           1
 vectorpot                               0.000297          60
 brgrid                                  0.000256           1
 set_dd_magatom                          0.000249          61
 chggra                                  0.000236           1
 shift_bands_between_low_high            0.000084         464
 fordep                                  0.000049           1
 set_rsgf_all                            0.000030          61
 crpa_reader                             0.000029           1
 potlok_metagga                          0.000028          60
 acc_cufft_makeplans                     0.000024           3
 rcp                                     0.000023           1
 redis_pw_over_bands                     0.000000           1
 rotate_active_occupied_orbital          0.000000           1
 ---------------------------------------------------------------
  summed up times     377.1693830490112     
 
 Accumulative profile
 ====================
 
             routine name                   CPU           calls
 ---------------------------------------------------------------
 total_time                            377.169383           1
 elmin                                 354.551639           1
 potlok                                270.847700          60
 eddrmm                                 25.273088          58
 redis_pw                               21.298211       17502
 orthch                                 20.931823          59
 fft3d_mpi                              20.594608      127428
 m_sumb_d                               18.267926       45858
 fftbrc_mpi                             17.509610       78614
 fftbas_plan_mpi                        17.462102       78614
 set_dd_paw                             15.198421          61
 m_alltoall_d                           11.053965      169974
 m_alltoallv_z                          10.400791       78733
 eddiag                                  9.078990          58
 i2                                      8.747520        8577
 map_backward                            8.064572       86448
 eddav                                   8.064241           5
 i3                                      7.580704        8577
 map_forward                             6.813311       70780
 redis_proj                              5.927163       14832
 force_and_stress                        5.217366           1
 eccp                                    4.481325       59102
 w1_gemv                                 3.953334       97042
 cnorma                                  3.260211       44990
 hamiltmu                                3.163428       12123
 set_charge                              2.882070          59
 newband                                 2.743355       12627
 wfinit                                  2.658113           1
 phaser                                  2.179819         608
 eccp_nl                                 2.049626       44990
 raccmu_                                 1.991876       12123
 soft_charge                             1.762928          59
 lapack                                  1.640841        3546
 map_scatter                             1.594609       78733
 map_gather                              1.563987       78733
 fftwav_mpi                              1.560459       78523
 fftwav                                  1.441575       78523
 init_acc                                1.411991           1
 m_bcast_z                               1.073622        7031
 fft3d                                   0.901684      127337
 overl1                                  0.829829       48521
 hamilt_local                            0.822207       12992
 kinhamil                                0.760501       48814
 strnlr                                  0.672830           1
 w1_copy                                 0.586791      107466
 w1_dscal                                0.558106       89989
 orth1                                   0.547820       17190
 fftext_mpi                              0.540174       48814
 setup_precond                           0.500756       14112
 rpromu_acc                              0.490184       11731
 acc_cufft_makeplans                     0.460812           3
 acc_cufft_makeplan                      0.460788          19
 rpro_isp                                0.415518         104
 racc0mu_acc                             0.407387       12123
 pw_charge                               0.404274       11518
 brmix                                   0.377896          59
 w1_daxpy                                0.377641       64274
 w1_dot                                  0.377331       12853
 apply_precond                           0.376312       81238
 w1_projall                              0.363485       11003
 w1_gaxpy                                0.349859       65959
 m_bcast_d                               0.331213        7215
 broyd                                   0.280460          59
 augmentation_charge                     0.277766          60
 choleski                                0.238481         472
 depsum                                  0.235970          59
 setdij_                                 0.231674          87
 fornlr                                  0.224764           1
 vhamil                                  0.219229       48814
 overl_mu                                0.185055       12123
 i1                                      0.170569        8577
 rspher_all                              0.169332          14
 zhegv                                   0.147026       19284
 proall                                  0.125456           1
 ggemm                                   0.106146        4666
 fft_gq                                  0.095878          59
 dfftw_execute                           0.067081         387
 densta                                  0.066542          64
 overl                                   0.062252        6908
 acc_init_cublas                         0.057941           1
 lincom                                  0.053796         976
 setg0                                   0.033522          60
 brget                                   0.023642        8756
 acc_init_cusolver                       0.019537           1
 inisym                                  0.017333           1
 fordep                                  0.012946           1
 stufak                                  0.010790           1
 brsav                                   0.007205        2233
 ggaall_grid                             0.006699          61
 pothar                                  0.005737          61
 truncate_high_frequency_w1              0.004440       49934
 fewald                                  0.003561           1
 forloc                                  0.002963           1
 brpre                                   0.001830          59
 strelo                                  0.001759           1
 strkin                                  0.001095           1
 chggra                                  0.001077           1
 strehar                                 0.001046           1
 rsp                                     0.001000           1
 forhar                                  0.000694           2
 posmap                                  0.000445           2
 vectorpot                               0.000297          60
 brgrid                                  0.000256           1
 set_dd_magatom                          0.000249          61
 shift_bands_between_low_high            0.000084         464
 set_rsgf_all                            0.000030          61
 crpa_reader                             0.000029           1
 potlok_metagga                          0.000028          60
 rcp                                     0.000023           1
 redis_pw_over_bands                     0.000000           1
 rotate_active_occupied_orbital          0.000000           1
 ---------------------------------------------------------------
 
Profiling took   0.373818  0.173988  0.003460  0.003403 seconds
Profiling took   0.241746 seconds
